  python dir          : /u/if/ksb/ase-qe/lib/python2.7/site-packages/espresso
  espresso dir        : /nfs/slac/g/suncatfs/ksb/q-e/bin
  pseudo dir          : /nfs/slac/g/suncatfs/sw/external/esp-psp/gbrv1.5pbe
  ase-espresso py git : 5c31baa-git



     Program PWSCF v.6.1 starts on 16Oct2017 at 20:56:54 

     This program is part of the open-source Quantum ESPRESSO suite
     for quantum simulation of materials; please cite
         "P. Giannozzi et al., J. Phys.:Condens. Matter 21 395502 (2009);
          URL http://www.quantum-espresso.org", 
     in publications or presentations arising from this work. More details at
     http://www.quantum-espresso.org/quote

     Parallel version (MPI), running on     8 processors
     R & G space division:  proc/nbgrp/npool/nimage =       8
     Reading input from pw.inp
     Message from routine read_cards :
     DEPRECATED: no units specified in CELL_PARAMETERS card

     Current dimensions of program PWSCF are:
     Max number of different atomic species (ntypx) = 10
     Max number of k-points (npk) =  40000
     Max angular momentum in pseudopotentials (lmaxx) =  3

     **************************************************************************
     Initializing libbeef V0.1.1 with the BEEF-vdW functional.
     Citation: Wellendorff et al., PRB 85, 235149 (2012).
     **************************************************************************


     IMPORTANT: XC functional enforced from input :
     Exchange-correlation      = BEEF ( 1  4 29 14 2 0)
     Any further DFT definition will be discarded
     Please, verify this is what you really want


     Subspace diagonalization in iterative solution of the eigenvalue problem:
     one sub-group per band group will be used
     scalapack distributed-memory algorithm (size of sub-group:  2*  2 procs)

 
     Parallelization info
     --------------------
     sticks:   dense  smooth     PW     G-vecs:    dense   smooth      PW
     Min         150      60     18                 3928      984     176
     Max         151      61     19                 3933      987     181
     Sum        1201     481    149                31439     7881    1419
 


     bravais-lattice index     =            0
     lattice parameter (alat)  =       1.8897  a.u.
     unit-cell volume          =     263.3547 (a.u.)^3
     number of atoms/cell      =            3
     number of atomic types    =            2
     number of electrons       =         7.00
     number of Kohn-Sham states=           15
     kinetic-energy cutoff     =      36.7493  Ry
     charge density cutoff     =     367.4932  Ry
     convergence threshold     =      3.7E-05
     mixing beta               =       0.1000
     number of iterations used =           10  plain     mixing
     Exchange-correlation      = BEEF ( 1  4 29 14 2 0)
     nstep                     =           50


     celldm(1)=   1.889726  celldm(2)=   0.000000  celldm(3)=   0.000000
     celldm(4)=   0.000000  celldm(5)=   0.000000  celldm(6)=   0.000000

     crystal axes: (cart. coord. in units of alat)
               a(1) = (   3.391940   0.000000   0.000000 )  
               a(2) = (   0.000000   3.391940   0.000000 )  
               a(3) = (   0.000000   0.000000   3.391940 )  

     reciprocal axes: (cart. coord. in units 2 pi/alat)
               b(1) = (  0.294817 -0.000000  0.000000 )  
               b(2) = (  0.000000  0.294817  0.000000 )  
               b(3) = (  0.000000  0.000000  0.294817 )  


     PseudoPot. # 1 for Li read from file:
     /nfs/slac/g/suncatfs/sw/external/esp-psp/gbrv1.5pbe/Li.UPF
     MD5 check sum: e912e257baa3777c20ea3d68f190483c
     Pseudo is Ultrasoft, Zval =  3.0
     Generated by new atomic code, or converted to UPF format
     Using radial grid of  751 points,  5 beta functions with: 
                l(1) =   0
                l(2) =   0
                l(3) =   0
                l(4) =   1
                l(5) =   1
     Q(r) pseudized with 10 coefficients,  rinner =    1.150   1.150   1.150


     PseudoPot. # 2 for H  read from file:
     /nfs/slac/g/suncatfs/sw/external/esp-psp/gbrv1.5pbe/H.UPF
     MD5 check sum: 761ae9a214b05c3daf00ab9f6b793d6f
     Pseudo is Ultrasoft, Zval =  1.0
     Generated by new atomic code, or converted to UPF format
     Using radial grid of  615 points,  2 beta functions with: 
                l(1) =   0
                l(2) =   0
     Q(r) pseudized with  8 coefficients,  rinner =    0.700

     vdW kernel table read from file vdW_kernel_table
     MD5 check sum: 095c7af220d748ca6e76c0b4c6cfb241

     atomic species   valence    mass     pseudopotential
        Li1            3.00     6.94000     Li( 1.00)
        H1             1.00     1.00800     H ( 1.00)

      2 Sym. Ops. (no inversion) found



   Cartesian axes

     site n.     atom                  positions (alat units)
         1           Li1 tau(   1) = (   0.0000000   0.0000000   0.0000000  )
         2           Li1 tau(   2) = (   1.6959699   1.6959699   1.6959699  )
         3           H1  tau(   3) = (   2.5440000   0.0000000   1.6960000  )

     number of k points=    30  Fermi-Dirac smearing, width (Ry)=  0.0073
                       cart. coord. in units 2pi/alat
        k(    1) = (   0.0000000   0.0000000   0.0000000), wk =   0.0312500
        k(    2) = (   0.0000000   0.0000000   0.0737041), wk =   0.0625000
        k(    3) = (   0.0000000   0.0000000  -0.1474083), wk =   0.0312500
        k(    4) = (   0.0000000   0.0737041   0.0737041), wk =   0.1250000
        k(    5) = (   0.0000000   0.0737041  -0.1474083), wk =   0.0625000
        k(    6) = (   0.0000000  -0.1474083  -0.1474083), wk =   0.0312500
        k(    7) = (   0.0737041   0.0737041   0.0737041), wk =   0.1250000
        k(    8) = (   0.0737041   0.0737041  -0.1474083), wk =   0.1250000
        k(    9) = (   0.0737041  -0.1474083  -0.1474083), wk =   0.0625000
        k(   10) = (  -0.1474083  -0.1474083  -0.1474083), wk =   0.0312500
        k(   11) = (   0.0737041  -0.0000000   0.0000000), wk =   0.0625000
        k(   12) = (   0.0000000   0.0737041   0.0000000), wk =   0.0625000
        k(   13) = (  -0.1474083   0.0000000   0.0000000), wk =   0.0312500
        k(   14) = (   0.0000000  -0.1474083   0.0000000), wk =   0.0312500
        k(   15) = (   0.0737041  -0.0000000  -0.0737041), wk =   0.0625000
        k(   16) = (  -0.0737041   0.0000000  -0.0737041), wk =   0.0625000
        k(   17) = (   0.0737041  -0.0737041   0.0000000), wk =   0.1250000
        k(   18) = (   0.0737041  -0.0000000   0.1474083), wk =   0.0625000
        k(   19) = (  -0.1474083  -0.0737041   0.0000000), wk =   0.0625000
        k(   20) = (   0.0000000  -0.1474083   0.0737041), wk =   0.0625000
        k(   21) = (   0.0737041  -0.1474083   0.0000000), wk =   0.0625000
        k(   22) = (  -0.1474083   0.0000000   0.0737041), wk =   0.0625000
        k(   23) = (  -0.1474083   0.0000000   0.1474083), wk =   0.0312500
        k(   24) = (  -0.1474083   0.1474083   0.0000000), wk =   0.0312500
        k(   25) = (   0.0737041  -0.0737041  -0.0737041), wk =   0.1250000
        k(   26) = (  -0.1474083  -0.0737041   0.0737041), wk =   0.1250000
        k(   27) = (  -0.0737041  -0.1474083   0.0737041), wk =   0.0625000
        k(   28) = (  -0.0737041   0.1474083  -0.0737041), wk =   0.0625000
        k(   29) = (  -0.1474083   0.0737041   0.1474083), wk =   0.0625000
        k(   30) = (  -0.1474083   0.1474083   0.0737041), wk =   0.0625000

     Dense  grid:    31439 G-vectors     FFT dimensions: (  40,  40,  40)

     Smooth grid:     7881 G-vectors     FFT dimensions: (  25,  25,  25)

     Estimated max dynamical RAM per process >       3.57MB

     Estimated total allocated dynamical RAM >      28.55MB

     Initial potential from superposition of free atoms

     starting charge    6.09851, renormalised to    7.00000


     %%%%%%%%%%%%%%%%%%%%%%%%%%%%%%%%%%%%%%%%%%%%%%%%%%%%%%%%%%%%%%%%%%%%%%%%
     %                                                                      %
     % You are using vdW-DF, which was implemented by the Thonhauser group. %
     % Please cite the following two papers that made this development      %
     % possible and the two reviews that describe the various versions:     %
     %                                                                      %
     %   T. Thonhauser et al., PRL 115, 136402 (2015).                      %
     %   T. Thonhauser et al., PRB 76, 125112 (2007).                       %
     %   K. Berland et al., Rep. Prog. Phys. 78, 066501 (2015).             %
     %   D.C. Langreth et al., J. Phys.: Condens. Matter 21, 084203 (2009). %
     %                                                                      %
     %                                                                      %
     % If you are calculating the stress with vdW-DF, please also cite:     %
     %                                                                      %
     %   R. Sabatini et al., J. Phys.: Condens. Matter 24, 424209 (2012).   %
     %                                                                      %
     %%%%%%%%%%%%%%%%%%%%%%%%%%%%%%%%%%%%%%%%%%%%%%%%%%%%%%%%%%%%%%%%%%%%%%%%


     Starting wfc are   11 randomized atomic wfcs +    4 random wfc

     total cpu time spent up to now is      122.3 secs

     per-process dynamical memory:    18.5 Mb

     Self-consistent Calculation

     iteration #  1     ecut=    36.75 Ry     beta=0.10
     Davidson diagonalization with overlap
     ethr =  1.00E-02,  avg # of iterations =  5.7

     total cpu time spent up to now is      906.6 secs

     total energy              =     -30.72533337 Ry
     Harris-Foulkes estimate   =     -30.77391116 Ry
     estimated scf accuracy    <       0.31678292 Ry

     iteration #  2     ecut=    36.75 Ry     beta=0.10
     Davidson diagonalization with overlap
     ethr =  4.53E-03,  avg # of iterations =  1.0

     total cpu time spent up to now is     1152.5 secs

     total energy              =     -30.54790524 Ry
     Harris-Foulkes estimate   =     -30.72715829 Ry
     estimated scf accuracy    <       0.23874418 Ry

     iteration #  3     ecut=    36.75 Ry     beta=0.10
     Davidson diagonalization with overlap
     ethr =  3.41E-03,  avg # of iterations =  1.0

     total cpu time spent up to now is     1405.0 secs

     total energy              =     -30.58217990 Ry
     Harris-Foulkes estimate   =     -30.58157702 Ry
     estimated scf accuracy    <       0.01496824 Ry

     iteration #  4     ecut=    36.75 Ry     beta=0.10
     Davidson diagonalization with overlap
     ethr =  2.14E-04,  avg # of iterations =  2.1

     total cpu time spent up to now is     1766.1 secs

     total energy              =     -30.57484006 Ry
     Harris-Foulkes estimate   =     -30.58334228 Ry
     estimated scf accuracy    <       0.01662967 Ry

     iteration #  5     ecut=    36.75 Ry     beta=0.10
     Davidson diagonalization with overlap
     ethr =  2.14E-04,  avg # of iterations =  1.0

     total cpu time spent up to now is     2005.3 secs

     total energy              =     -30.57650136 Ry
     Harris-Foulkes estimate   =     -30.57781296 Ry
     estimated scf accuracy    <       0.00175742 Ry

     iteration #  6     ecut=    36.75 Ry     beta=0.10
     Davidson diagonalization with overlap
     ethr =  2.51E-05,  avg # of iterations =  2.6

     total cpu time spent up to now is     2444.7 secs

     total energy              =     -30.57675322 Ry
     Harris-Foulkes estimate   =     -30.57673147 Ry
     estimated scf accuracy    <       0.00006677 Ry

     iteration #  7     ecut=    36.75 Ry     beta=0.10
     Davidson diagonalization with overlap
     ethr =  9.54E-07,  avg # of iterations =  3.2

     total cpu time spent up to now is     2931.2 secs

     total energy              =     -30.57675538 Ry
     Harris-Foulkes estimate   =     -30.57677338 Ry
     estimated scf accuracy    <       0.00005035 Ry

     iteration #  8     ecut=    36.75 Ry     beta=0.10
     Davidson diagonalization with overlap
     ethr =  7.19E-07,  avg # of iterations =  1.9

     total cpu time spent up to now is     3267.7 secs

     End of self-consistent calculation

          k = 0.0000 0.0000 0.0000 (  1021 PWs)   bands (ev):

   -46.1173 -46.0810  -4.5493   3.2984   6.5686   6.5686   7.8186   9.0138
    14.9383  15.8234  15.8235  16.0614  17.0993  20.5076  20.5080

          k = 0.0000 0.0000 0.0737 (   992 PWs)   bands (ev):

   -46.1108 -46.0854  -4.1453   1.6162   5.9210   7.3449   9.2223  11.6869
    13.1064  13.2452  14.7446  15.1160  16.1396  18.4984  20.2551

          k = 0.0000 0.0000-0.1474 (   972 PWs)   bands (ev):

   -46.0976 -46.0965  -3.5425  -0.0047   6.8583   9.3768   9.7809   9.9524
    11.4529  12.4243  13.2234  14.0679  17.9692  22.0619  22.2377

          k = 0.0000 0.0737 0.0737 (   995 PWs)   bands (ev):

   -46.1062 -46.0881  -3.7984   1.3413   5.0108   6.9832   9.6314  11.9807
    12.6917  13.0701  14.1126  15.7903  16.1045  18.2224  20.6025

          k = 0.0000 0.0737-0.1474 (   982 PWs)   bands (ev):

   -46.0968 -46.0955  -3.3254   0.5378   5.6529   6.6196   8.7891  10.4678
    12.5659  13.5203  14.0465  16.6722  16.8157  17.9015  21.0267

          k = 0.0000-0.1474-0.1474 (   992 PWs)   bands (ev):

   -46.0961 -46.0946  -3.0773   1.4436   4.4501   4.4501  10.2811  11.5887
    11.5888  12.2769  13.2668  15.2129  18.7675  18.7677  23.0704

          k = 0.0737 0.0737 0.0737 (  1003 PWs)   bands (ev):

   -46.1029 -46.0899  -3.3553   1.6642   3.7715   6.7876   8.6979  10.1196
    11.5128  13.8659  14.3304  16.8954  18.8430  19.9821  20.5736

          k = 0.0737 0.0737-0.1474 (   976 PWs)   bands (ev):

   -46.0960 -46.0947  -2.9026   1.1407   4.5928   6.1895   7.5602   8.5330
    11.6743  12.2348  16.0446  19.0432  19.1547  19.9226  21.5883

          k = 0.0737-0.1474-0.1474 (  1004 PWs)   bands (ev):

   -46.0954 -46.0938  -2.6301   2.2484   4.5150   4.5150   6.4856   8.6364
    10.4690  10.4692  16.8975  20.8348  21.6124  21.6125  23.8388

          k =-0.1474-0.1474-0.1474 (   968 PWs)   bands (ev):

   -46.0944 -46.0929  -2.0472   4.4613   4.5532   4.5864   4.5864   4.7654
     9.6625   9.6627  19.5884  25.1167  25.1661  25.1662  25.1722

          k = 0.0737-0.0000 0.0000 (   992 PWs)   bands (ev):

   -46.1109 -46.0854  -4.0849   1.6986   6.4549   7.3453   7.3454  13.0888
    13.2546  13.2546  14.2403  15.1517  15.6629  19.9305  19.9306

          k = 0.0000 0.0737 0.0000 (   992 PWs)   bands (ev):

   -46.1108 -46.0853  -4.1453   1.6162   5.9210   7.3449   9.2221  11.6873
    13.1064  13.2452  14.7447  15.1157  16.1396  18.4984  20.2551

          k =-0.1474 0.0000 0.0000 (   972 PWs)   bands (ev):

   -46.0981 -46.0964  -3.3655  -0.0024   6.8053   9.3846   9.3846   9.9482
     9.9482  12.0454  14.1013  14.3419  21.7205  21.7208  22.0185

          k = 0.0000-0.1474 0.0000 (   972 PWs)   bands (ev):

   -46.0980 -46.0961  -3.5424  -0.0047   6.8582   9.3767   9.7810   9.9525
    11.4526  12.4242  13.2237  14.0680  17.9692  22.0619  22.2373

          k = 0.0737-0.0000-0.0737 (   995 PWs)   bands (ev):

   -46.1063 -46.0882  -3.6973   1.5334   4.0860   8.1078   8.7098  10.9936
    12.9861  13.9655  15.1631  15.7603  16.5710  17.2231  20.0828

          k =-0.0737 0.0000-0.0737 (   995 PWs)   bands (ev):

   -46.1063 -46.0882  -3.6973   1.5335   4.0859   8.1078   8.7099  10.9935
    12.9861  13.9655  15.1631  15.7603  16.5710  17.2229  20.0829

          k = 0.0737-0.0737 0.0000 (   995 PWs)   bands (ev):

   -46.1063 -46.0882  -3.6973   1.5335   4.0858   8.1077   8.7099  10.9936
    12.9861  13.9655  15.1630  15.7604  16.5710  17.2229  20.0829

          k = 0.0737-0.0000 0.1474 (   982 PWs)   bands (ev):

   -46.0968 -46.0957  -3.1431   0.5291   4.5388   6.6202  10.0506  10.6264
    11.6692  13.3995  15.5438  16.6266  17.4320  17.9880  18.7910

          k =-0.1474-0.0737 0.0000 (   982 PWs)   bands (ev):

   -46.0973 -46.0955  -3.0352   0.5243   4.4029   6.5883  10.0569  10.6227
    11.1820  13.4748  15.1038  16.4871  17.4101  17.9820  21.2791

          k = 0.0000-0.1474 0.0737 (   982 PWs)   bands (ev):

   -46.0970 -46.0953  -3.3254   0.5378   5.6528   6.6196   8.7891  10.4679
    12.5659  13.5203  14.0465  16.6722  16.8157  17.9015  21.0266

          k = 0.0737-0.1474 0.0000 (   982 PWs)   bands (ev):

   -46.0972 -46.0953  -3.1430   0.5291   4.5386   6.6202  10.0505  10.6265
    11.6694  13.3995  15.5434  16.6266  17.4320  17.9880  18.7912

          k =-0.1474 0.0000 0.0737 (   982 PWs)   bands (ev):

   -46.0971 -46.0956  -3.0352   0.5243   4.4030   6.5883  10.0569  10.6227
    11.1817  13.4748  15.1039  16.4871  17.4100  17.9820  21.2789

          k =-0.1474 0.0000 0.1474 (   992 PWs)   bands (ev):

   -46.0961 -46.0949  -2.6186   1.4073   2.8772   4.5015  11.1998  11.4541
    11.7766  13.1991  14.7034  15.2686  16.5111  18.2852  21.6521

          k =-0.1474 0.1474 0.0000 (   992 PWs)   bands (ev):

   -46.0965 -46.0946  -2.6185   1.4073   2.8769   4.5016  11.1996  11.4544
    11.7767  13.1991  14.7034  15.2686  16.5106  18.2853  21.6523

          k = 0.0737-0.0737-0.0737 (  1003 PWs)   bands (ev):

   -46.1029 -46.0899  -3.3553   1.6642   3.7715   6.7877   8.6979  10.1196
    11.5129  13.8659  14.3304  16.8954  18.8431  19.9821  20.5736

          k =-0.1474-0.0737 0.0737 (   976 PWs)   bands (ev):

   -46.0962 -46.0947  -2.7234   1.1196   3.9407   6.0907   8.2689   8.3939
    11.7422  12.2168  15.4773  18.8482  19.7918  20.0384  23.5503

          k =-0.0737-0.1474 0.0737 (   976 PWs)   bands (ev):

   -46.0962 -46.0945  -2.9026   1.1407   4.5926   6.1895   7.5603   8.5331
    11.6742  12.2349  16.0444  19.0431  19.1547  19.9227  21.5884

          k =-0.0737 0.1474-0.0737 (   976 PWs)   bands (ev):

   -46.0962 -46.0945  -2.9026   1.1407   4.5927   6.1896   7.5602   8.5330
    11.6742  12.2349  16.0443  19.0431  19.1547  19.9227  21.5885

          k =-0.1474 0.0737 0.1474 (  1004 PWs)   bands (ev):

   -46.0954 -46.0940  -2.3466   2.2125   3.1574   4.5738   7.6812   8.6045
    10.3494  10.5291  17.7897  20.4783  20.8688  21.2896  23.0565

          k =-0.1474 0.1474 0.0737 (  1004 PWs)   bands (ev):

   -46.0955 -46.0938  -2.3465   2.2125   3.1572   4.5738   7.6814   8.6045
    10.3492  10.5293  17.7895  20.4783  20.8688  21.2897  23.0567

     the Fermi energy is     1.3816 ev

!    total energy              =     -30.57676122 Ry
     Harris-Foulkes estimate   =     -30.57676186 Ry
     estimated scf accuracy    <       0.00000464 Ry

     The total energy is the sum of the following terms:

     one-electron contribution =     -18.69243198 Ry
     hartree contribution      =       7.41661350 Ry
     xc contribution           =      -7.97266200 Ry
     ewald contribution        =     -11.32482839 Ry
     smearing contrib. (-TS)   =      -0.00345235 Ry

     convergence has been achieved in   8 iterations

     Forces acting on atoms (cartesian axes, Ry/au):

     atom    1 type  1   force =    -0.00790895    0.00000000   -0.00000060
     atom    2 type  1   force =     0.00790211   -0.00000000    0.00000325
     atom    3 type  2   force =     0.00000684   -0.00000000   -0.00000265

     Total force =     0.011180     Total SCF correction =     0.000971


     Computing stress (Cartesian axis) and pressure

          total   stress  (Ry/bohr**3)                   (kbar)     P=   -3.60
  -0.00010228   0.00000000   0.00000002        -15.05      0.00      0.00
   0.00000000   0.00001443  -0.00000000          0.00      2.12     -0.00
   0.00000002  -0.00000000   0.00001438          0.00     -0.00      2.12


     BFGS Geometry Optimization

     number of scf cycles    =   1
     number of bfgs steps    =   0

     enthalpy new            =     -30.5767612198 Ry

     new trust radius        =       0.0082993366 bohr
     new conv_thr            =       0.0000367493 Ry

     new unit-cell volume =    262.87050 a.u.^3 (    38.95339 Ang^3 )
     density =      0.63466 g/cm^3

CELL_PARAMETERS (alat=  1.88972612)
   3.383266432   0.000000000   0.000001664
   0.000000000   3.393163332   0.000000000
   0.000001664  -0.000000000   3.393159550

ATOMIC_POSITIONS (crystal)
Li1     -0.001233877   0.000000000  -0.000000093
Li1      0.501232810   0.500000000   0.500000506
H1       0.750014363  -0.000000000   0.500008451



     Writing output data file calc.save
     NEW-OLD atomic charge density approx. for the potential
     extrapolated charge    6.98877, renormalised to    7.00000

     total cpu time spent up to now is     3327.3 secs

     per-process dynamical memory:    25.6 Mb

     Self-consistent Calculation

     iteration #  1     ecut=    36.75 Ry     beta=0.10
     Davidson diagonalization with overlap
     ethr =  1.00E-06,  avg # of iterations =  3.2

     Threshold (ethr) on eigenvalues was too large:
     Diagonalizing with lowered threshold

     Davidson diagonalization with overlap
     ethr =  3.58E-08,  avg # of iterations =  1.0

     total cpu time spent up to now is     3973.6 secs

     End of self-consistent calculation

          k = 0.0000 0.0000 0.0000 (  1021 PWs)   bands (ev):

   -46.1674 -46.1311  -4.5397   3.3251   6.5611   6.5611   7.8537   9.0661
    14.9512  15.8326  15.8327  16.0957  17.1495  20.5704  20.5705

          k =-0.0000 0.0000 0.0737 (   992 PWs)   bands (ev):

   -46.1610 -46.1355  -4.1372   1.6226   5.9641   7.3367   9.2605  11.7215
    13.1634  13.2366  14.7666  15.1198  16.1667  18.5470  20.3043

          k = 0.0000-0.0000-0.1474 (   972 PWs)   bands (ev):

   -46.1476 -46.1467  -3.5369   0.0021   6.9053   9.3670   9.8351   9.9434
    11.4813  12.4575  13.2775  14.0999  18.0100  22.0819  22.2958

          k =-0.0000 0.0737 0.0737 (   995 PWs)   bands (ev):

   -46.1564 -46.1383  -3.7920   1.3455   5.0169   7.0312   9.6388  12.0457
    12.7209  13.1054  14.1590  15.7927  16.1297  18.2694  20.6658

          k = 0.0000 0.0737-0.1474 (   982 PWs)   bands (ev):

   -46.1467 -46.1459  -3.3218   0.5433   5.6608   6.6217   8.8451  10.5193
    12.6244  13.5793  14.0821  16.6996  16.8280  17.9615  21.0471

          k = 0.0000-0.1474-0.1474 (   992 PWs)   bands (ev):

   -46.1457 -46.1452  -3.0761   1.4459   4.4566   4.4566  10.3561  11.6328
    11.6328  12.3349  13.3240  15.2814  18.8180  18.8180  23.0523

          k = 0.0739 0.0737 0.0737 (  1003 PWs)   bands (ev):

   -46.1530 -46.1400  -3.3456   1.6758   3.7916   6.8036   8.7321  10.1350
    11.5314  13.8837  14.3438  16.9519  18.8640  20.0158  20.6120

          k = 0.0739 0.0737-0.1474 (   976 PWs)   bands (ev):

   -46.1459 -46.1451  -2.8960   1.1498   4.6165   6.2081   7.5856   8.5539
    11.7007  12.2611  16.0785  19.0797  19.2098  19.9704  21.6185

          k = 0.0739-0.1474-0.1474 (  1004 PWs)   bands (ev):

   -46.1450 -46.1444  -2.6263   2.2548   4.5238   4.5239   6.5337   8.6735
    10.4973  10.4973  16.9635  20.9026  21.6882  21.6882  23.8217

          k =-0.1478-0.1474-0.1474 (   968 PWs)   bands (ev):

   -46.1440 -46.1434  -2.0399   4.4982   4.5864   4.5980   4.5981   4.7682
     9.6805   9.6805  19.6202  25.0924  25.2069  25.2486  25.2487

          k = 0.0739-0.0000-0.0000 (   992 PWs)   bands (ev):

   -46.1611 -46.1355  -4.0715   1.7274   6.4689   7.3411   7.3411  13.1188
    13.2779  13.2779  14.2812  15.1948  15.7031  19.9309  19.9309

          k =-0.0000 0.0737 0.0000 (   992 PWs)   bands (ev):

   -46.1610 -46.1355  -4.1372   1.6226   5.9641   7.3368   9.2603  11.7218
    13.1634  13.2366  14.7667  15.1195  16.1667  18.5472  20.3044

          k =-0.1478 0.0000 0.0000 (   972 PWs)   bands (ev):

   -46.1481 -46.1465  -3.3446   0.0155   6.8191   9.3747   9.3747   9.9754
     9.9754  12.0774  14.0796  14.3770  21.7064  21.7065  22.1441

          k = 0.0000-0.1474-0.0000 (   972 PWs)   bands (ev):

   -46.1473 -46.1471  -3.5369   0.0021   6.9051   9.3670   9.8351   9.9434
    11.4811  12.4574  13.2779  14.1000  18.0101  22.0820  22.2959

          k = 0.0739-0.0000-0.0737 (   995 PWs)   bands (ev):

   -46.1564 -46.1383  -3.6856   1.5503   4.1082   8.1029   8.7411  11.0139
    12.9923  13.9729  15.1801  15.8269  16.5889  17.2425  20.1346

          k =-0.0739 0.0000-0.0737 (   995 PWs)   bands (ev):

   -46.1564 -46.1383  -3.6856   1.5504   4.1081   8.1029   8.7411  11.0138
    12.9923  13.9730  15.1801  15.8269  16.5889  17.2425  20.1347

          k = 0.0739-0.0737-0.0000 (   995 PWs)   bands (ev):

   -46.1564 -46.1383  -3.6856   1.5504   4.1080   8.1029   8.7411  11.0139
    12.9923  13.9730  15.1800  15.8270  16.5890  17.2424  20.1347

          k = 0.0739-0.0000 0.1474 (   982 PWs)   bands (ev):

   -46.1469 -46.1459  -3.1342   0.5395   4.5721   6.6558  10.0438  10.6214
    11.6897  13.4017  15.5816  16.6873  17.4662  18.0159  18.8612

          k =-0.1478-0.0737 0.0000 (   982 PWs)   bands (ev):

   -46.1470 -46.1459  -3.0171   0.5427   4.4158   6.6143  10.0474  10.6464
    11.1989  13.4728  15.1104  16.5032  17.4055  18.0044  21.3003

          k =-0.0000-0.1474 0.0737 (   982 PWs)   bands (ev):

   -46.1465 -46.1461  -3.3217   0.5433   5.6607   6.6216   8.8451  10.5193
    12.6243  13.5793  14.0822  16.6996  16.8280  17.9615  21.0471

          k = 0.0739-0.1474-0.0000 (   982 PWs)   bands (ev):

   -46.1465 -46.1463  -3.1341   0.5394   4.5719   6.6558  10.0438  10.6214
    11.6900  13.4018  15.5812  16.6873  17.4663  18.0159  18.8614

          k =-0.1478 0.0000 0.0737 (   982 PWs)   bands (ev):

   -46.1471 -46.1458  -3.0171   0.5427   4.4160   6.6144  10.0474  10.6464
    11.1986  13.4728  15.1106  16.5032  17.4054  18.0044  21.3002

          k =-0.1478 0.0000 0.1474 (   992 PWs)   bands (ev):

   -46.1461 -46.1451  -2.6047   1.4246   2.8998   4.5243  11.1972  11.4737
    11.7796  13.2019  14.7254  15.2804  16.5194  18.3049  21.6998

          k =-0.1478 0.1474 0.0000 (   992 PWs)   bands (ev):

   -46.1457 -46.1455  -2.6046   1.4246   2.8995   4.5242  11.1971  11.4740
    11.7796  13.2020  14.7255  15.2804  16.5190  18.3049  21.6999

          k = 0.0739-0.0737-0.0737 (  1003 PWs)   bands (ev):

   -46.1530 -46.1400  -3.3456   1.6758   3.7916   6.8037   8.7321  10.1350
    11.5314  13.8837  14.3438  16.9519  18.8641  20.0158  20.6120

          k =-0.1478-0.0737 0.0737 (   976 PWs)   bands (ev):

   -46.1460 -46.1451  -2.7082   1.1387   3.9504   6.1243   8.2892   8.4002
    11.7497  12.2254  15.4764  18.8661  19.7965  20.0590  23.5418

          k =-0.0739-0.1474 0.0737 (   976 PWs)   bands (ev):

   -46.1457 -46.1453  -2.8959   1.1498   4.6164   6.2081   7.5857   8.5539
    11.7008  12.2611  16.0784  19.0797  19.2098  19.9704  21.6186

          k =-0.0739 0.1474-0.0737 (   976 PWs)   bands (ev):

   -46.1457 -46.1453  -2.8959   1.1498   4.6164   6.2081   7.5856   8.5539
    11.7008  12.2611  16.0783  19.0797  19.2098  19.9704  21.6188

          k =-0.1478 0.0737 0.1474 (  1004 PWs)   bands (ev):

   -46.1452 -46.1444  -2.3355   2.2293   3.1801   4.5949   7.7035   8.6146
    10.3615  10.5418  17.7994  20.4979  20.8806  21.2978  23.0850

          k =-0.1478 0.1474 0.0737 (  1004 PWs)   bands (ev):

   -46.1450 -46.1446  -2.3355   2.2293   3.1800   4.5949   7.7037   8.6146
    10.3614  10.5418  17.7992  20.4980  20.8806  21.2978  23.0851

     the Fermi energy is     1.3931 ev

!    total energy              =     -30.57696962 Ry
     Harris-Foulkes estimate   =     -30.58454586 Ry
     estimated scf accuracy    <       0.00000251 Ry

     The total energy is the sum of the following terms:

     one-electron contribution =     -18.68893477 Ry
     hartree contribution      =       7.41965069 Ry
     xc contribution           =      -7.97498365 Ry
     ewald contribution        =     -11.32927442 Ry
     smearing contrib. (-TS)   =      -0.00342747 Ry

     convergence has been achieved in   1 iterations

     Forces acting on atoms (cartesian axes, Ry/au):

     atom    1 type  1   force =    -0.00827019    0.00000000    0.00000482
     atom    2 type  1   force =     0.00827203   -0.00000000   -0.00000287
     atom    3 type  2   force =    -0.00000184    0.00000000   -0.00000194

     Total force =     0.011697     Total SCF correction =     0.001221
     SCF correction compared to forces is large: reduce conv_thr to get better values


     Computing stress (Cartesian axis) and pressure

          total   stress  (Ry/bohr**3)                   (kbar)     P=   10.12
  -0.00000882   0.00000000   0.00000001         -1.30      0.00      0.00
   0.00000000   0.00010759  -0.00000000          0.00     15.83     -0.00
   0.00000001  -0.00000000   0.00010767          0.00     -0.00     15.84


     number of scf cycles    =   2
     number of bfgs steps    =   1

     enthalpy old            =     -30.5767612198 Ry
     enthalpy new            =     -30.5769696212 Ry

     CASE: enthalpy_new < enthalpy_old

     new trust radius        =       0.0091442568 bohr
     new conv_thr            =       0.0000003675 Ry

     new unit-cell volume =    262.72632 a.u.^3 (    38.93202 Ang^3 )
     density =      0.63501 g/cm^3

CELL_PARAMETERS (alat=  1.88972612)
   3.375081450   0.000000000   0.000003441
   0.000000000   3.396344522   0.000000000
   0.000003441  -0.000000000   3.396338667

ATOMIC_POSITIONS (crystal)
Li1     -0.002664131   0.000000000  -0.000000010
Li1      0.502662144   0.500000000   0.500000874
H1       0.750015285  -0.000000000   0.500008001



     Writing output data file calc.save
     NEW-OLD atomic charge density approx. for the potential
     extrapolated charge    6.99665, renormalised to    7.00000

     total cpu time spent up to now is     4033.8 secs

     per-process dynamical memory:    26.1 Mb

     Self-consistent Calculation

     iteration #  1     ecut=    36.75 Ry     beta=0.10
     Davidson diagonalization with overlap
     ethr =  1.00E-06,  avg # of iterations =  3.1

     Threshold (ethr) on eigenvalues was too large:
     Diagonalizing with lowered threshold

     Davidson diagonalization with overlap
     ethr =  1.47E-08,  avg # of iterations =  1.1

     total cpu time spent up to now is     4656.4 secs

     total energy              =     -30.57720529 Ry
     Harris-Foulkes estimate   =     -30.57946732 Ry
     estimated scf accuracy    <       0.00000103 Ry

     iteration #  2     ecut=    36.75 Ry     beta=0.10
     Davidson diagonalization with overlap
     ethr =  1.47E-08,  avg # of iterations =  2.0

     total cpu time spent up to now is     5009.2 secs

     total energy              =     -30.57720547 Ry
     Harris-Foulkes estimate   =     -30.57720555 Ry
     estimated scf accuracy    <       0.00000081 Ry

     iteration #  3     ecut=    36.75 Ry     beta=0.10
     Davidson diagonalization with overlap
     ethr =  1.15E-08,  avg # of iterations =  1.0

     total cpu time spent up to now is     5261.4 secs

     total energy              =     -30.57720530 Ry
     Harris-Foulkes estimate   =     -30.57720548 Ry
     estimated scf accuracy    <       0.00000056 Ry

     iteration #  4     ecut=    36.75 Ry     beta=0.10
     Davidson diagonalization with overlap
     ethr =  8.06E-09,  avg # of iterations =  1.0

     total cpu time spent up to now is     5513.5 secs

     End of self-consistent calculation

          k = 0.0000 0.0000 0.0000 (  1021 PWs)   bands (ev):

   -46.0860 -46.0494  -4.5421   3.3331   6.5387   6.5388   7.8699   9.0898
    14.9508  15.8408  15.8409  16.1391  17.1649  20.6068  20.6069

          k =-0.0000 0.0000 0.0736 (   992 PWs)   bands (ev):

   -46.0795 -46.0538  -4.1418   1.6108   5.9947   7.3134   9.2735  11.7332
    13.2122  13.2145  14.7792  15.1051  16.1718  18.5696  20.3285

          k = 0.0000-0.0000-0.1472 (   972 PWs)   bands (ev):

   -46.0658 -46.0654  -3.5454  -0.0069   6.9350   9.3416   9.8833   9.9179
    11.4836  12.4544  13.3242  14.1244  18.0339  22.0670  22.3327

          k =-0.0000 0.0736 0.0736 (   995 PWs)   bands (ev):

   -46.0749 -46.0566  -3.7990   1.3315   5.0055   7.0672   9.6283  12.0888
    12.7280  13.1400  14.1976  15.7837  16.1234  18.2930  20.7056

          k = 0.0000 0.0736-0.1472 (   982 PWs)   bands (ev):

   -46.0649 -46.0646  -3.3328   0.5323   5.6488   6.6040   8.8890  10.5652
    12.6704  13.6278  14.1054  16.7040  16.8157  17.9968  21.0350

          k = 0.0000-0.1472-0.1472 (   992 PWs)   bands (ev):

   -46.0639 -46.0639  -3.0904   1.4304   4.4448   4.4449  10.4095  11.6755
    11.6755  12.3837  13.3734  15.3224  18.8450  18.8451  22.9981

          k = 0.0741 0.0736 0.0736 (  1003 PWs)   bands (ev):

   -46.0714 -46.0584  -3.3492   1.6702   3.7950   6.8029   8.7502  10.1295
    11.5424  13.8908  14.3349  16.9830  18.8658  20.0328  20.6323

          k = 0.0741 0.0736-0.1472 (   976 PWs)   bands (ev):

   -46.0640 -46.0637  -2.9039   1.1428   4.6219   6.2086   7.5946   8.5594
    11.7186  12.2780  16.0911  19.0857  19.2453  20.0029  21.6251

          k = 0.0741-0.1472-0.1472 (  1004 PWs)   bands (ev):

   -46.0632 -46.0631  -2.6380   2.2435   4.5147   4.5147   6.5646   8.6935
    10.5189  10.5189  17.0159  20.9554  21.7489  21.7489  23.7747

          k =-0.1481-0.1472-0.1472 (   968 PWs)   bands (ev):

   -46.0621 -46.0621  -2.0480   4.5183   4.5920   4.5920   4.6056   4.7496
     9.6892   9.6893  19.6357  25.0488  25.2299  25.3271  25.3272

          k = 0.0741-0.0000-0.0000 (   992 PWs)   bands (ev):

   -46.0796 -46.0538  -4.0699   1.7415   6.4537   7.3222   7.3223  13.1189
    13.2930  13.2930  14.2945  15.2233  15.7451  19.8982  19.8983

          k =-0.0000 0.0736 0.0000 (   992 PWs)   bands (ev):

   -46.0795 -46.0538  -4.1418   1.6109   5.9946   7.3135   9.2733  11.7335
    13.2122  13.2144  14.7793  15.1048  16.1717  18.5697  20.3286

          k =-0.1481 0.0000 0.0000 (   972 PWs)   bands (ev):

   -46.0668 -46.0645  -3.3347   0.0185   6.8033   9.3498   9.3499   9.9914
     9.9914  12.0747  14.0366  14.4061  21.6597  21.6598  22.2544

          k = 0.0000-0.1472-0.0000 (   972 PWs)   bands (ev):

   -46.0658 -46.0654  -3.5454  -0.0069   6.9348   9.3416   9.8832   9.9179
    11.4833  12.4543  13.3246  14.1245  18.0339  22.0670  22.3329

          k = 0.0741-0.0000-0.0736 (   995 PWs)   bands (ev):

   -46.0749 -46.0566  -3.6865   1.5508   4.1132   8.0832   8.7528  11.0125
    12.9910  13.9617  15.1853  15.8788  16.5717  17.2395  20.1594

          k =-0.0741 0.0000-0.0736 (   995 PWs)   bands (ev):

   -46.0749 -46.0566  -3.6865   1.5509   4.1131   8.0832   8.7528  11.0124
    12.9910  13.9617  15.1853  15.8787  16.5717  17.2395  20.1595

          k = 0.0741-0.0736-0.0000 (   995 PWs)   bands (ev):

   -46.0749 -46.0566  -3.6865   1.5509   4.1130   8.0832   8.7528  11.0126
    12.9910  13.9618  15.1852  15.8788  16.5718  17.2394  20.1594

          k = 0.0741-0.0000 0.1472 (   982 PWs)   bands (ev):

   -46.0650 -46.0646  -3.1392   0.5343   4.5879   6.6766  10.0228  10.6016
    11.6883  13.3843  15.6086  16.7322  17.4738  18.0148  18.9100

          k =-0.1481-0.0736 0.0000 (   982 PWs)   bands (ev):

   -46.0656 -46.0640  -3.0110   0.5459   4.4083   6.6232  10.0238  10.6597
    11.1947  13.4493  15.1055  16.4971  17.3681  17.9969  21.2896

          k =-0.0000-0.1472 0.0736 (   982 PWs)   bands (ev):

   -46.0648 -46.0647  -3.3328   0.5323   5.6487   6.6040   8.8891  10.5652
    12.6703  13.6278  14.1055  16.7039  16.8157  17.9968  21.0350

          k = 0.0741-0.1472-0.0000 (   982 PWs)   bands (ev):

   -46.0649 -46.0646  -3.1391   0.5343   4.5877   6.6766  10.0228  10.6016
    11.6887  13.3843  15.6082  16.7322  17.4739  18.0149  18.9103

          k =-0.1481 0.0000 0.0736 (   982 PWs)   bands (ev):

   -46.0656 -46.0640  -3.0110   0.5459   4.4084   6.6232  10.0238  10.6596
    11.1944  13.4493  15.1057  16.4971  17.3680  17.9969  21.2895

          k =-0.1481 0.0000 0.1472 (   992 PWs)   bands (ev):

   -46.0642 -46.0637  -2.6042   1.4272   2.9044   4.5303  11.1859  11.4741
    11.7745  13.1885  14.7153  15.2564  16.5085  18.2972  21.7260

          k =-0.1481 0.1472 0.0000 (   992 PWs)   bands (ev):

   -46.0641 -46.0638  -2.6041   1.4272   2.9041   4.5303  11.1858  11.4745
    11.7745  13.1886  14.7155  15.2564  16.5081  18.2973  21.7261

          k = 0.0741-0.0736-0.0736 (  1003 PWs)   bands (ev):

   -46.0714 -46.0584  -3.3492   1.6701   3.7950   6.8030   8.7501  10.1295
    11.5424  13.8908  14.3349  16.9830  18.8659  20.0327  20.6323

          k =-0.1481-0.0736 0.0736 (   976 PWs)   bands (ev):

   -46.0645 -46.0634  -2.7059   1.1424   3.9403   6.1414   8.2955   8.3863
    11.7459  12.2215  15.4508  18.8549  19.7774  20.0589  23.4922

          k =-0.0741-0.1472 0.0736 (   976 PWs)   bands (ev):

   -46.0639 -46.0638  -2.9039   1.1428   4.6217   6.2085   7.5947   8.5595
    11.7187  12.2781  16.0909  19.0857  19.2454  20.0030  21.6252

          k =-0.0741 0.1472-0.0736 (   976 PWs)   bands (ev):

   -46.0639 -46.0638  -2.9039   1.1428   4.6218   6.2086   7.5946   8.5595
    11.7187  12.2780  16.0909  19.0857  19.2454  20.0029  21.6253

          k =-0.1481 0.0736 0.1472 (  1004 PWs)   bands (ev):

   -46.0633 -46.0630  -2.3388   2.2305   3.1852   4.5989   7.7072   8.6040
    10.3641  10.5451  17.7859  20.4974  20.8688  21.2811  23.0840

          k =-0.1481 0.1472 0.0736 (  1004 PWs)   bands (ev):

   -46.0632 -46.0631  -2.3387   2.2305   3.1850   4.5989   7.7074   8.6041
    10.3641  10.5451  17.7857  20.4975  20.8689  21.2811  23.0842

     the Fermi energy is     1.3878 ev

!    total energy              =     -30.57720536 Ry
     Harris-Foulkes estimate   =     -30.57720536 Ry
     estimated scf accuracy    <       0.00000003 Ry

     The total energy is the sum of the following terms:

     one-electron contribution =     -18.68922486 Ry
     hartree contribution      =       7.41758264 Ry
     xc contribution           =      -7.97373554 Ry
     ewald contribution        =     -11.32842231 Ry
     smearing contrib. (-TS)   =      -0.00340530 Ry

     convergence has been achieved in   4 iterations

     Forces acting on atoms (cartesian axes, Ry/au):

     atom    1 type  1   force =    -0.00868913    0.00000000    0.00000152
     atom    2 type  1   force =     0.00869096   -0.00000000    0.00000083
     atom    3 type  2   force =    -0.00000183    0.00000000   -0.00000235

     Total force =     0.012290     Total SCF correction =     0.000007


     Computing stress (Cartesian axis) and pressure

          total   stress  (Ry/bohr**3)                   (kbar)     P=   -6.14
  -0.00012119   0.00000000   0.00000001        -17.83      0.00      0.00
   0.00000000  -0.00000203  -0.00000000          0.00     -0.30     -0.00
   0.00000001  -0.00000000  -0.00000195          0.00     -0.00     -0.29


     number of scf cycles    =   3
     number of bfgs steps    =   2

     enthalpy old            =     -30.5769696212 Ry
     enthalpy new            =     -30.5772053609 Ry

     CASE: enthalpy_new < enthalpy_old


     WARNING: bfgs curvature condition failed, Theta= 0.222
     new trust radius        =       0.0136832018 bohr
     new conv_thr            =       0.0000003675 Ry

     new unit-cell volume =    262.54454 a.u.^3 (    38.90509 Ang^3 )
     density =      0.63545 g/cm^3

CELL_PARAMETERS (alat=  1.88972612)
   3.362931310   0.000000000   0.000006174
   0.000000000   3.401299053   0.000000000
   0.000006175  -0.000000000   3.401289254

ATOMIC_POSITIONS (crystal)
Li1     -0.004809513   0.000000000   0.000000091
Li1      0.504806029   0.500000000   0.500001454
H1       0.750016781  -0.000000000   0.500007319



     Writing output data file calc.save
     NEW-OLD atomic charge density approx. for the potential
     extrapolated charge    6.99578, renormalised to    7.00000

     total cpu time spent up to now is     5576.4 secs

     per-process dynamical memory:    27.4 Mb

     Self-consistent Calculation

     iteration #  1     ecut=    36.75 Ry     beta=0.10
     Davidson diagonalization with overlap
     ethr =  1.00E-06,  avg # of iterations =  3.4

     Threshold (ethr) on eigenvalues was too large:
     Diagonalizing with lowered threshold

     Davidson diagonalization with overlap
     ethr =  5.26E-08,  avg # of iterations =  1.0

     total cpu time spent up to now is     6337.2 secs

     total energy              =     -30.57756051 Ry
     Harris-Foulkes estimate   =     -30.58041684 Ry
     estimated scf accuracy    <       0.00000368 Ry

     iteration #  2     ecut=    36.75 Ry     beta=0.10
     Davidson diagonalization with overlap
     ethr =  5.26E-08,  avg # of iterations =  1.0

     total cpu time spent up to now is     6601.5 secs

     total energy              =     -30.57756063 Ry
     Harris-Foulkes estimate   =     -30.57756096 Ry
     estimated scf accuracy    <       0.00000193 Ry

     iteration #  3     ecut=    36.75 Ry     beta=0.10
     Davidson diagonalization with overlap
     ethr =  2.75E-08,  avg # of iterations =  1.0

     total cpu time spent up to now is     6858.3 secs

     total energy              =     -30.57756054 Ry
     Harris-Foulkes estimate   =     -30.57756070 Ry
     estimated scf accuracy    <       0.00000071 Ry

     iteration #  4     ecut=    36.75 Ry     beta=0.10
     Davidson diagonalization with overlap
     ethr =  1.01E-08,  avg # of iterations =  1.2

     total cpu time spent up to now is     7170.9 secs

     End of self-consistent calculation

          k = 0.0000 0.0000 0.0000 (  1021 PWs)   bands (ev):

   -46.0824 -46.0456  -4.5418   3.3505   6.5054   6.5055   7.9021   9.1363
    14.9333  15.8362  15.8363  16.1959  17.1944  20.6677  20.6678

          k =-0.0000 0.0000 0.0735 (   992 PWs)   bands (ev):

   -46.0759 -46.0501  -4.1449   1.5997   6.0434   7.2782   9.3009  11.7542
    13.1746  13.2821  14.7820  15.0849  16.1841  18.6065  20.3671

          k = 0.0000-0.0000-0.1470 (   972 PWs)   bands (ev):

   -46.0622 -46.0617  -3.5548  -0.0128   6.9831   9.3011   9.8786   9.9550
    11.4927  12.4593  13.3892  14.1592  18.0631  22.0319  22.3860

          k =-0.0000 0.0735 0.0735 (   995 PWs)   bands (ev):

   -46.0713 -46.0529  -3.8060   1.3178   4.9917   7.1235   9.6138  12.1539
    12.7384  13.1886  14.2506  15.7613  16.1232  18.3287  20.7689

          k = 0.0000 0.0735-0.1470 (   982 PWs)   bands (ev):

   -46.0613 -46.0610  -3.3460   0.5235   5.6342   6.5812   8.9564  10.6324
    12.7382  13.7006  14.1343  16.7116  16.7957  18.0570  21.0164

          k = 0.0000-0.1470-0.1470 (   992 PWs)   bands (ev):

   -46.0603 -46.0602  -3.1083   1.4159   4.4308   4.4309  10.4950  11.7331
    11.7332  12.4555  13.4460  15.3968  18.8857  18.8858  22.9121

          k = 0.0743 0.0735 0.0735 (  1003 PWs)   bands (ev):

   -46.0678 -46.0546  -3.3513   1.6686   3.8065   6.8035   8.7803  10.1249
    11.5521  13.8926  14.3209  17.0365  18.8612  20.0468  20.6636

          k = 0.0743 0.0735-0.1470 (   976 PWs)   bands (ev):

   -46.0603 -46.0601  -2.9127   1.1398   4.6351   6.2144   7.6103   8.5706
    11.7400  12.2994  16.1038  19.0896  19.2983  20.0570  21.6300

          k = 0.0743-0.1470-0.1470 (  1004 PWs)   bands (ev):

   -46.0595 -46.0594  -2.6524   2.2351   4.5054   4.5054   6.6166   8.7306
    10.5455  10.5455  17.0866  21.0284  21.8357  21.8358  23.6937

          k =-0.1487-0.1470-0.1470 (   968 PWs)   bands (ev):

   -46.0584 -46.0583  -2.0577   4.5550   4.5883   4.5884   4.6432   4.7295
     9.6963   9.6964  19.6431  24.9625  25.2464  25.4257  25.4258

          k = 0.0743-0.0000-0.0000 (   992 PWs)   bands (ev):

   -46.0759 -46.0500  -4.0639   1.7693   6.4404   7.2937   7.2937  13.1222
    13.3100  13.3100  14.3208  15.2388  15.8235  19.8495  19.8495

          k =-0.0000 0.0735 0.0000 (   992 PWs)   bands (ev):

   -46.0759 -46.0501  -4.1449   1.5997   6.0433   7.2783   9.3007  11.7546
    13.1745  13.2821  14.7821  15.0845  16.1839  18.6067  20.3672

          k =-0.1487 0.0000 0.0000 (   972 PWs)   bands (ev):

   -46.0636 -46.0602  -3.3171   0.0310   6.7877   9.3099   9.3099  10.0156
    10.0156  12.0840  13.9682  14.4384  21.5831  21.5832  22.4192

          k = 0.0000-0.1470-0.0000 (   972 PWs)   bands (ev):

   -46.0621 -46.0618  -3.5548  -0.0128   6.9829   9.3011   9.8786   9.9550
    11.4924  12.4593  13.3897  14.1592  18.0632  22.0319  22.3862

          k = 0.0743-0.0000-0.0735 (   995 PWs)   bands (ev):

   -46.0713 -46.0529  -3.6843   1.5583   4.1268   8.0528   8.7741  11.0125
    12.9803  13.9396  15.1788  15.9658  16.5554  17.2345  20.1978

          k =-0.0743 0.0000-0.0735 (   995 PWs)   bands (ev):

   -46.0713 -46.0529  -3.6843   1.5584   4.1267   8.0528   8.7741  11.0124
    12.9804  13.9397  15.1788  15.9657  16.5554  17.2345  20.1980

          k = 0.0743-0.0735-0.0000 (   995 PWs)   bands (ev):

   -46.0713 -46.0529  -3.6843   1.5584   4.1265   8.0529   8.7740  11.0126
    12.9803  13.9398  15.1786  15.9659  16.5555  17.2345  20.1979

          k = 0.0743-0.0000 0.1470 (   982 PWs)   bands (ev):

   -46.0613 -46.0609  -3.1435   0.5341   4.6171   6.7129   9.9877  10.5696
    11.6861  13.3564  15.6412  16.7989  17.4891  18.0194  18.9839

          k =-0.1487-0.0735 0.0000 (   982 PWs)   bands (ev):

   -46.0623 -46.0599  -2.9990   0.5588   4.4027   6.6420   9.9844  10.6784
    11.1873  13.4136  15.0892  16.4875  17.3133  17.9930  21.2710

          k =-0.0000-0.1470 0.0735 (   982 PWs)   bands (ev):

   -46.0612 -46.0611  -3.3460   0.5235   5.6341   6.5812   8.9564  10.6324
    12.7381  13.7007  14.1344  16.7115  16.7957  18.0571  21.0164

          k = 0.0743-0.1470-0.0000 (   982 PWs)   bands (ev):

   -46.0613 -46.0610  -3.1434   0.5340   4.6168   6.7128   9.9877  10.5696
    11.6865  13.3565  15.6408  16.7989  17.4892  18.0194  18.9842

          k =-0.1487 0.0000 0.0735 (   982 PWs)   bands (ev):

   -46.0623 -46.0599  -2.9991   0.5588   4.4029   6.6420   9.9844  10.6783
    11.1869  13.4135  15.0894  16.4875  17.3132  17.9929  21.2709

          k =-0.1487 0.0000 0.1470 (   992 PWs)   bands (ev):

   -46.0605 -46.0600  -2.6007   1.4388   2.9176   4.5451  11.1610  11.4733
    11.7597  13.1656  14.7088  15.2317  16.4857  18.2861  21.7550

          k =-0.1487 0.1470 0.0000 (   992 PWs)   bands (ev):

   -46.0604 -46.0601  -2.6005   1.4388   2.9173   4.5451  11.1609  11.4738
    11.7597  13.1657  14.7090  15.2318  16.4853  18.2862  21.7551

          k = 0.0743-0.0735-0.0735 (  1003 PWs)   bands (ev):

   -46.0678 -46.0546  -3.3513   1.6685   3.8065   6.8035   8.7803  10.1249
    11.5521  13.8927  14.3209  17.0366  18.8612  20.0467  20.6636

          k =-0.1487-0.0735 0.0735 (   976 PWs)   bands (ev):

   -46.0610 -46.0593  -2.6999   1.1558   3.9313   6.1741   8.3036   8.3685
    11.7347  12.2121  15.4091  18.8406  19.7444  20.0516  23.4127

          k =-0.0743-0.1470 0.0735 (   976 PWs)   bands (ev):

   -46.0603 -46.0602  -2.9126   1.1398   4.6349   6.2143   7.6105   8.5706
    11.7401  12.2994  16.1036  19.0897  19.2984  20.0571  21.6301

          k =-0.0743 0.1470-0.0735 (   976 PWs)   bands (ev):

   -46.0603 -46.0602  -2.9126   1.1398   4.6349   6.2143   7.6105   8.5706
    11.7401  12.2993  16.1036  19.0896  19.2984  20.0571  21.6303

          k =-0.1487 0.0735 0.1470 (  1004 PWs)   bands (ev):

   -46.0596 -46.0593  -2.3410   2.2399   3.1993   4.6115   7.7162   8.5937
    10.3623  10.5443  17.7573  20.4896  20.8451  21.2523  23.0762

          k =-0.1487 0.1470 0.0735 (  1004 PWs)   bands (ev):

   -46.0595 -46.0594  -2.3410   2.2399   3.1991   4.6115   7.7165   8.5937
    10.3622  10.5443  17.7572  20.4897  20.8452  21.2524  23.0764

     the Fermi energy is     1.3870 ev

!    total energy              =     -30.57756062 Ry
     Harris-Foulkes estimate   =     -30.57756065 Ry
     estimated scf accuracy    <       0.00000010 Ry

     The total energy is the sum of the following terms:

     one-electron contribution =     -18.69387507 Ry
     hartree contribution      =       7.42101025 Ry
     xc contribution           =      -7.97467787 Ry
     ewald contribution        =     -11.32664024 Ry
     smearing contrib. (-TS)   =      -0.00337769 Ry

     convergence has been achieved in   4 iterations

     Forces acting on atoms (cartesian axes, Ry/au):

     atom    1 type  1   force =    -0.00884423    0.00000000    0.00000132
     atom    2 type  1   force =     0.00884612   -0.00000000    0.00000063
     atom    3 type  2   force =    -0.00000189    0.00000000   -0.00000195

     Total force =     0.012509     Total SCF correction =     0.000022


     Computing stress (Cartesian axis) and pressure

          total   stress  (Ry/bohr**3)                   (kbar)     P=   -5.73
  -0.00011907   0.00000000   0.00000001        -17.52      0.00      0.00
   0.00000000   0.00000103  -0.00000000          0.00      0.15     -0.00
   0.00000001  -0.00000000   0.00000112          0.00     -0.00      0.16


     number of scf cycles    =   4
     number of bfgs steps    =   3

     enthalpy old            =     -30.5772053609 Ry
     enthalpy new            =     -30.5775606169 Ry

     CASE: enthalpy_new < enthalpy_old


     WARNING: bfgs curvature condition failed, Theta= 0.697
     uphill step: resetting bfgs history

     new trust radius        =       0.0096464151 bohr
     new conv_thr            =       0.0000003675 Ry

     new unit-cell volume =    261.77711 a.u.^3 (    38.79136 Ang^3 )
     density =      0.63731 g/cm^3

CELL_PARAMETERS (alat=  1.88972612)
   3.352920886   0.000000000   0.000006935
   0.000000000   3.401386857   0.000000000
   0.000006926  -0.000000000   3.401384523

ATOMIC_POSITIONS (crystal)
Li1     -0.006201205   0.000000000   0.000000300
Li1      0.506198019   0.500000000   0.500001549
H1       0.750016483  -0.000000000   0.500007016



     Writing output data file calc.save
     NEW-OLD atomic charge density approx. for the potential
     extrapolated charge    6.98212, renormalised to    7.00000

     total cpu time spent up to now is     7231.4 secs

     per-process dynamical memory:    28.5 Mb

     Self-consistent Calculation

     iteration #  1     ecut=    36.75 Ry     beta=0.10
     Davidson diagonalization with overlap
     ethr =  1.00E-06,  avg # of iterations =  3.1

     total cpu time spent up to now is     7626.8 secs

     total energy              =     -30.57779983 Ry
     Harris-Foulkes estimate   =     -30.58985489 Ry
     estimated scf accuracy    <       0.00000753 Ry

     iteration #  2     ecut=    36.75 Ry     beta=0.10
     Davidson diagonalization with overlap
     ethr =  1.08E-07,  avg # of iterations =  2.6

     total cpu time spent up to now is     8007.5 secs

     total energy              =     -30.57780730 Ry
     Harris-Foulkes estimate   =     -30.57780750 Ry
     estimated scf accuracy    <       0.00000134 Ry

     iteration #  3     ecut=    36.75 Ry     beta=0.10
     Davidson diagonalization with overlap
     ethr =  1.91E-08,  avg # of iterations =  1.0

     total cpu time spent up to now is     8224.0 secs

     total energy              =     -30.57780675 Ry
     Harris-Foulkes estimate   =     -30.57780730 Ry
     estimated scf accuracy    <       0.00000095 Ry

     iteration #  4     ecut=    36.75 Ry     beta=0.10
     Davidson diagonalization with overlap
     ethr =  1.36E-08,  avg # of iterations =  1.0

     total cpu time spent up to now is     8472.0 secs

     End of self-consistent calculation

          k = 0.0000 0.0000 0.0000 (  1021 PWs)   bands (ev):

   -46.0662 -46.0289  -4.5399   3.3749   6.5024   6.5025   7.9413   9.1825
    14.9609  15.8688  15.8690  16.2738  17.2491  20.7442  20.7443

          k =-0.0000 0.0000 0.0735 (   992 PWs)   bands (ev):

   -46.0596 -46.0334  -4.1450   1.6033   6.0902   7.2755   9.3380  11.7932
    13.1801  13.3550  14.8141  15.1109  16.2298  18.6678  20.4306

          k = 0.0000-0.0000-0.1470 (   972 PWs)   bands (ev):

   -46.0457 -46.0452  -3.5584  -0.0085   7.0322   9.2981   9.8789  10.0218
    11.5215  12.4862  13.4628  14.2180  18.1218  22.0493  22.4617

          k =-0.0000 0.0735 0.0735 (   995 PWs)   bands (ev):

   -46.0549 -46.0363  -3.8083   1.3189   4.9994   7.1763   9.6295  12.2170
    12.7736  13.2510  14.3133  15.7858  16.1556  18.3873  20.8501

          k = 0.0000 0.0735-0.1470 (   982 PWs)   bands (ev):

   -46.0448 -46.0445  -3.3520   0.5266   5.6434   6.5863   9.0196  10.6978
    12.8062  13.7768  14.1846  16.7509  16.8185  18.1296  21.0470

          k = 0.0000-0.1470-0.1470 (   992 PWs)   bands (ev):

   -46.0439 -46.0438  -3.1173   1.4156   4.4393   4.4393  10.5726  11.7954
    11.7955  12.5249  13.5201  15.4725  18.9510  18.9511  22.9052

          k = 0.0746 0.0735 0.0735 (  1003 PWs)   bands (ev):

   -46.0514 -46.0380  -3.3500   1.6775   3.8251   6.8246   8.8211  10.1451
    11.5874  13.9250  14.3437  17.1030  18.8982  20.0942  20.7313

          k = 0.0746 0.0735-0.1470 (   976 PWs)   bands (ev):

   -46.0438 -46.0436  -2.9153   1.1470   4.6569   6.2339   7.6415   8.6019
    11.7811  12.3411  16.1462  19.1268  19.3704  20.1357  21.6776

          k = 0.0746-0.1470-0.1470 (  1004 PWs)   bands (ev):

   -46.0430 -46.0429  -2.6584   2.2398   4.5152   4.5152   6.6650   8.7741
    10.5904  10.5904  17.1664  21.1137  21.9327  21.9327  23.6909

          k =-0.1491-0.1470-0.1470 (   968 PWs)   bands (ev):

   -46.0419 -46.0418  -2.0596   4.5902   4.5996   4.5996   4.6815   4.7298
     9.7311   9.7312  19.6916  24.9582  25.3107  25.5355  25.5356

          k = 0.0746-0.0000-0.0000 (   992 PWs)   bands (ev):

   -46.0596 -46.0333  -4.0581   1.7964   6.4500   7.2948   7.2948  13.1534
    13.3504  13.3505  14.3675  15.2752  15.9192  19.8590  19.8591

          k =-0.0000 0.0735 0.0000 (   992 PWs)   bands (ev):

   -46.0596 -46.0334  -4.1450   1.6033   6.0901   7.2755   9.3378  11.7936
    13.1800  13.3550  14.8143  15.1106  16.2297  18.6680  20.4307

          k =-0.1491 0.0000 0.0000 (   972 PWs)   bands (ev):

   -46.0474 -46.0433  -3.3032   0.0457   6.7976   9.3061   9.3061  10.0557
    10.0557  12.1148  13.9600  14.4969  21.5775  21.5775  22.5613

          k = 0.0000-0.1470-0.0000 (   972 PWs)   bands (ev):

   -46.0456 -46.0453  -3.5584  -0.0085   7.0321   9.2981   9.8789  10.0218
    11.5212  12.4861  13.4631  14.2181  18.1219  22.0493  22.4619

          k = 0.0746-0.0000-0.0735 (   995 PWs)   bands (ev):

   -46.0549 -46.0362  -3.6805   1.5724   4.1486   8.0542   8.8097  11.0393
    13.0035  13.9569  15.2092  16.0533  16.5783  17.2703  20.2618

          k =-0.0746 0.0000-0.0735 (   995 PWs)   bands (ev):

   -46.0549 -46.0362  -3.6806   1.5725   4.1486   8.0542   8.8097  11.0392
    13.0036  13.9570  15.2091  16.0533  16.5784  17.2703  20.2619

          k = 0.0746-0.0735-0.0000 (   995 PWs)   bands (ev):

   -46.0549 -46.0362  -3.6805   1.5725   4.1484   8.0542   8.8097  11.0394
    13.0035  13.9571  15.2090  16.0534  16.5784  17.2703  20.2619

          k = 0.0746-0.0000 0.1470 (   982 PWs)   bands (ev):

   -46.0448 -46.0444  -3.1434   0.5422   4.6493   6.7535   9.9892  10.5755
    11.7152  13.3715  15.6935  16.8739  17.5331  18.0586  19.0716

          k =-0.1491-0.0735 0.0000 (   982 PWs)   bands (ev):

   -46.0460 -46.0431  -2.9885   0.5742   4.4135   6.6724   9.9823  10.7164
    11.2112  13.4230  15.1141  16.5171  17.3130  18.0287  21.3050

          k =-0.0000-0.1470 0.0735 (   982 PWs)   bands (ev):

   -46.0447 -46.0446  -3.3520   0.5266   5.6433   6.5863   9.0196  10.6978
    12.8060  13.7768  14.1848  16.7508  16.8184  18.1296  21.0470

          k = 0.0746-0.1470-0.0000 (   982 PWs)   bands (ev):

   -46.0448 -46.0444  -3.1433   0.5422   4.6491   6.7535   9.9892  10.5755
    11.7155  13.3715  15.6931  16.8739  17.5332  18.0586  19.0719

          k =-0.1491 0.0000 0.0735 (   982 PWs)   bands (ev):

   -46.0460 -46.0431  -2.9885   0.5742   4.4137   6.6725   9.9823  10.7164
    11.2109  13.4230  15.1143  16.5171  17.3129  18.0287  21.3050

          k =-0.1491 0.0000 0.1470 (   992 PWs)   bands (ev):

   -46.0439 -46.0434  -2.5950   1.4540   2.9372   4.5712  11.1708  11.5021
    11.7787  13.1821  14.7349  15.2480  16.5116  18.3197  21.8157

          k =-0.1491 0.1470 0.0000 (   992 PWs)   bands (ev):

   -46.0438 -46.0435  -2.5949   1.4540   2.9369   4.5712  11.1707  11.5025
    11.7787  13.1821  14.7351  15.2480  16.5112  18.3198  21.8159

          k = 0.0746-0.0735-0.0735 (  1003 PWs)   bands (ev):

   -46.0514 -46.0380  -3.3500   1.6775   3.8251   6.8246   8.8211  10.1451
    11.5874  13.9250  14.3437  17.1030  18.8982  20.0942  20.7313

          k =-0.1491-0.0735 0.0735 (   976 PWs)   bands (ev):

   -46.0447 -46.0426  -2.6926   1.1723   3.9385   6.2110   8.3319   8.3798
    11.7571  12.2354  15.4173  18.8706  19.7668  20.0909  23.4079

          k =-0.0746-0.1470 0.0735 (   976 PWs)   bands (ev):

   -46.0438 -46.0436  -2.9152   1.1470   4.6567   6.2338   7.6417   8.6019
    11.7812  12.3412  16.1460  19.1268  19.3705  20.1357  21.6777

          k =-0.0746 0.1470-0.0735 (   976 PWs)   bands (ev):

   -46.0438 -46.0436  -2.9152   1.1470   4.6568   6.2339   7.6417   8.6019
    11.7812  12.3411  16.1460  19.1267  19.3705  20.1357  21.6778

          k =-0.1491 0.0735 0.1470 (  1004 PWs)   bands (ev):

   -46.0430 -46.0428  -2.3386   2.2552   3.2190   4.6348   7.7417   8.6084
    10.3895  10.5731  17.7804  20.5265  20.8724  21.2801  23.1166

          k =-0.1491 0.1470 0.0735 (  1004 PWs)   bands (ev):

   -46.0430 -46.0428  -2.3386   2.2551   3.2188   4.6348   7.7419   8.6084
    10.3894  10.5731  17.7802  20.5266  20.8725  21.2802  23.1168

     the Fermi energy is     1.3958 ev

!    total energy              =     -30.57780684 Ry
     Harris-Foulkes estimate   =     -30.57780683 Ry
     estimated scf accuracy    <       0.00000001 Ry

     The total energy is the sum of the following terms:

     one-electron contribution =     -18.68292363 Ry
     hartree contribution      =       7.41961761 Ry
     xc contribution           =      -7.97642493 Ry
     ewald contribution        =     -11.33472218 Ry
     smearing contrib. (-TS)   =      -0.00335371 Ry

     convergence has been achieved in   4 iterations

     Forces acting on atoms (cartesian axes, Ry/au):

     atom    1 type  1   force =    -0.00855825    0.00000000    0.00000126
     atom    2 type  1   force =     0.00856022   -0.00000000    0.00000052
     atom    3 type  2   force =    -0.00000197    0.00000000   -0.00000177

     Total force =     0.012105     Total SCF correction =     0.000013


     Computing stress (Cartesian axis) and pressure

          total   stress  (Ry/bohr**3)                   (kbar)     P=   -5.10
  -0.00011578   0.00000000   0.00000001        -17.03      0.00      0.00
   0.00000000   0.00000584  -0.00000000          0.00      0.86     -0.00
   0.00000001  -0.00000000   0.00000593          0.00     -0.00      0.87


     number of scf cycles    =   5
     number of bfgs steps    =   4

     enthalpy old            =     -30.5775606169 Ry
     enthalpy new            =     -30.5778068354 Ry

     CASE: enthalpy_new < enthalpy_old


     WARNING: bfgs curvature condition failed, Theta= 0.827
     new trust radius        =       0.0106271709 bohr
     new conv_thr            =       0.0000003675 Ry

     new unit-cell volume =    260.96399 a.u.^3 (    38.67087 Ang^3 )
     density =      0.63930 g/cm^3

CELL_PARAMETERS (alat=  1.88972612)
   3.341909420   0.000000000   0.000007703
   0.000000000   3.401686452   0.000000000
   0.000007682  -0.000000000   3.401692361

ATOMIC_POSITIONS (crystal)
Li1     -0.007726811   0.000000000   0.000000526
Li1      0.507723961   0.500000000   0.500001646
H1       0.750016146  -0.000000000   0.500006692



     Writing output data file calc.save
     NEW-OLD atomic charge density approx. for the potential
     extrapolated charge    6.98100, renormalised to    7.00000

     total cpu time spent up to now is     8531.7 secs

     per-process dynamical memory:    29.5 Mb

     Self-consistent Calculation

     iteration #  1     ecut=    36.75 Ry     beta=0.10
     Davidson diagonalization with overlap
     ethr =  1.00E-06,  avg # of iterations =  3.2

     total cpu time spent up to now is     9056.4 secs

     total energy              =     -30.57805466 Ry
     Harris-Foulkes estimate   =     -30.59085020 Ry
     estimated scf accuracy    <       0.00000789 Ry

     iteration #  2     ecut=    36.75 Ry     beta=0.10
     Davidson diagonalization with overlap
     ethr =  1.13E-07,  avg # of iterations =  2.7

     total cpu time spent up to now is     9478.4 secs

     total energy              =     -30.57806305 Ry
     Harris-Foulkes estimate   =     -30.57806329 Ry
     estimated scf accuracy    <       0.00000157 Ry

     iteration #  3     ecut=    36.75 Ry     beta=0.10
     Davidson diagonalization with overlap
     ethr =  2.25E-08,  avg # of iterations =  1.0

     total cpu time spent up to now is     9743.0 secs

     total energy              =     -30.57806240 Ry
     Harris-Foulkes estimate   =     -30.57806306 Ry
     estimated scf accuracy    <       0.00000113 Ry

     iteration #  4     ecut=    36.75 Ry     beta=0.10
     Davidson diagonalization with overlap
     ethr =  1.62E-08,  avg # of iterations =  1.0

     total cpu time spent up to now is    10046.9 secs

     End of self-consistent calculation

          k = 0.0000 0.0000 0.0000 (  1021 PWs)   bands (ev):

   -46.0501 -46.0123  -4.5372   3.4016   6.4980   6.4980   7.9853   9.2324
    14.9868  15.9028  15.9029  16.3627  17.3077  20.8277  20.8277

          k =-0.0000 0.0000 0.0735 (   992 PWs)   bands (ev):

   -46.0434 -46.0169  -4.1442   1.6068   6.1418   7.2712   9.3784  11.8354
    13.1841  13.4339  14.8446  15.1419  16.2805  18.7348  20.4999

          k = 0.0000-0.0000-0.1470 (   972 PWs)   bands (ev):

   -46.0294 -46.0289  -3.5614  -0.0042   7.0860   9.2936   9.8774  10.0954
    11.5533  12.5129  13.5438  14.2838  18.1846  22.0613  22.5446

          k =-0.0000 0.0735 0.0735 (   995 PWs)   bands (ev):

   -46.0387 -46.0198  -3.8099   1.3198   5.0068   7.2344   9.6458  12.2837
    12.8108  13.3218  14.3822  15.8116  16.1912  18.4504  20.9386

          k = 0.0000 0.0735-0.1470 (   982 PWs)   bands (ev):

   -46.0284 -46.0281  -3.3576   0.5294   5.6525   6.5907   9.0894  10.7698
    12.8813  13.8609  14.2391  16.7934  16.8408  18.2089  21.0780

          k = 0.0000-0.1470-0.1470 (   992 PWs)   bands (ev):

   -46.0275 -46.0274  -3.1261   1.4146   4.4476   4.4476  10.6582  11.8639
    11.8639  12.6025  13.6017  15.5558  19.0216  19.0216  22.8955

          k = 0.0748 0.0735 0.0735 (  1003 PWs)   bands (ev):

   -46.0351 -46.0215  -3.3475   1.6870   3.8454   6.8469   8.8651  10.1666
    11.6251  13.9581  14.3684  17.1763  18.9366  20.1434  20.8061

          k = 0.0748 0.0735-0.1470 (   976 PWs)   bands (ev):

   -46.0274 -46.0272  -2.9169   1.1545   4.6805   6.2542   7.6755   8.6360
    11.8255  12.3861  16.1911  19.1628  19.4496  20.2243  21.7280

          k = 0.0748-0.1470-0.1470 (  1004 PWs)   bands (ev):

   -46.0266 -46.0265  -2.6636   2.2444   4.5250   4.5250   6.7187   8.8219
    10.6390  10.6390  17.2535  21.2052  22.0389  22.0390  23.6850

          k =-0.1496-0.1470-0.1470 (   968 PWs)   bands (ev):

   -46.0254 -46.0254  -2.0601   4.6112   4.6113   4.6289   4.7229   4.7301
     9.7681   9.7682  19.7427  24.9504  25.3774  25.6544  25.6545

          k = 0.0748-0.0000-0.0000 (   992 PWs)   bands (ev):

   -46.0434 -46.0167  -4.0507   1.8264   6.4604   7.2949   7.2949  13.1851
    13.3941  13.3942  14.4182  15.3087  16.0311  19.8667  19.8668

          k =-0.0000 0.0735 0.0000 (   992 PWs)   bands (ev):

   -46.0434 -46.0169  -4.1442   1.6068   6.1417   7.2711   9.3781  11.8358
    13.1840  13.4339  14.8447  15.1417  16.2805  18.7349  20.4999

          k =-0.1496 0.0000 0.0000 (   972 PWs)   bands (ev):

   -46.0314 -46.0264  -3.2866   0.0617   6.8085   9.3014   9.3015  10.0986
    10.0986  12.1478  13.9490  14.5589  21.5682  21.5682  22.5916

          k = 0.0000-0.1470-0.0000 (   972 PWs)   bands (ev):

   -46.0293 -46.0290  -3.5613  -0.0042   7.0859   9.2936   9.8773  10.0954
    11.5530  12.5128  13.5441  14.2839  18.1847  22.0615  22.5447

          k = 0.0748-0.0000-0.0735 (   995 PWs)   bands (ev):

   -46.0387 -46.0197  -3.6755   1.5877   4.1727   8.0545   8.8480  11.0679
    13.0276  13.9735  15.2395  16.1518  16.6022  17.3090  20.3309

          k =-0.0748 0.0000-0.0735 (   995 PWs)   bands (ev):

   -46.0387 -46.0197  -3.6755   1.5878   4.1727   8.0545   8.8479  11.0679
    13.0276  13.9736  15.2394  16.1517  16.6023  17.3090  20.3311

          k = 0.0748-0.0735-0.0000 (   995 PWs)   bands (ev):

   -46.0387 -46.0197  -3.6754   1.5878   4.1725   8.0545   8.8480  11.0680
    13.0275  13.9736  15.2393  16.1519  16.6023  17.3089  20.3310

          k = 0.0748-0.0000 0.1470 (   982 PWs)   bands (ev):

   -46.0284 -46.0280  -3.1422   0.5507   4.6847   6.7978   9.9897  10.5803
    11.7459  13.3862  15.7504  16.9556  17.5807  18.1005  19.1676

          k =-0.1496-0.0735 0.0000 (   982 PWs)   bands (ev):

   -46.0299 -46.0263  -2.9755   0.5909   4.4254   6.7051   9.9792  10.7570
    11.2361  13.4316  15.1400  16.5481  17.3105  18.0664  21.3394

          k =-0.0000-0.1470 0.0735 (   982 PWs)   bands (ev):

   -46.0284 -46.0282  -3.3575   0.5294   5.6524   6.5906   9.0894  10.7697
    12.8812  13.8609  14.2392  16.7933  16.8407  18.2089  21.0781

          k = 0.0748-0.1470-0.0000 (   982 PWs)   bands (ev):

   -46.0284 -46.0280  -3.1421   0.5507   4.6845   6.7978   9.9896  10.5802
    11.7462  13.3862  15.7500  16.9556  17.5808  18.1005  19.1679

          k =-0.1496 0.0000 0.0735 (   982 PWs)   bands (ev):

   -46.0299 -46.0263  -2.9755   0.5909   4.4256   6.7050   9.9793  10.7571
    11.2358  13.4317  15.1401  16.5481  17.3104  18.0664  21.3394

          k =-0.1496 0.0000 0.1470 (   992 PWs)   bands (ev):

   -46.0275 -46.0270  -2.5874   1.4706   2.9584   4.5992  11.1806  11.5325
    11.7980  13.1985  14.7624  15.2644  16.5386  18.3547  21.8796

          k =-0.1496 0.1470 0.0000 (   992 PWs)   bands (ev):

   -46.0274 -46.0271  -2.5873   1.4706   2.9581   4.5992  11.1805  11.5329
    11.7979  13.1985  14.7625  15.2644  16.5382  18.3548  21.8798

          k = 0.0748-0.0735-0.0735 (  1003 PWs)   bands (ev):

   -46.0351 -46.0215  -3.3475   1.6870   3.8454   6.8469   8.8651  10.1666
    11.6251  13.9581  14.3685  17.1763  18.9367  20.1434  20.8061

          k =-0.1496-0.0735 0.0735 (   976 PWs)   bands (ev):

   -46.0284 -46.0260  -2.6833   1.1901   3.9464   6.2511   8.3620   8.3908
    11.7807  12.2596  15.4251  18.9015  19.7891  20.1314  23.3996

          k =-0.0748-0.1470 0.0735 (   976 PWs)   bands (ev):

   -46.0274 -46.0272  -2.9168   1.1545   4.6803   6.2542   7.6756   8.6360
    11.8256  12.3862  16.1909  19.1627  19.4497  20.2243  21.7281

          k =-0.0748 0.1470-0.0735 (   976 PWs)   bands (ev):

   -46.0274 -46.0272  -2.9168   1.1545   4.6804   6.2542   7.6756   8.6360
    11.8255  12.3861  16.1908  19.1627  19.4496  20.2243  21.7283

          k =-0.1496 0.0735 0.1470 (  1004 PWs)   bands (ev):

   -46.0266 -46.0263  -2.3345   2.2716   3.2403   4.6598   7.7691   8.6237
    10.4183  10.6034  17.8039  20.5648  20.8991  21.3087  23.1579

          k =-0.1496 0.1470 0.0735 (  1004 PWs)   bands (ev):

   -46.0265 -46.0264  -2.3344   2.2716   3.2401   4.6598   7.7693   8.6236
    10.4182  10.6034  17.8038  20.5649  20.8991  21.3087  23.1581

     the Fermi energy is     1.4051 ev

!    total energy              =     -30.57806250 Ry
     Harris-Foulkes estimate   =     -30.57806250 Ry
     estimated scf accuracy    <       0.00000004 Ry

     The total energy is the sum of the following terms:

     one-electron contribution =     -18.67138160 Ry
     hartree contribution      =       7.41812326 Ry
     xc contribution           =      -7.97823771 Ry
     ewald contribution        =     -11.34324048 Ry
     smearing contrib. (-TS)   =      -0.00332596 Ry

     convergence has been achieved in   4 iterations

     Forces acting on atoms (cartesian axes, Ry/au):

     atom    1 type  1   force =    -0.00776303    0.00000000    0.00000121
     atom    2 type  1   force =     0.00776515   -0.00000000    0.00000042
     atom    3 type  2   force =    -0.00000212    0.00000000   -0.00000163

     Total force =     0.010980     Total SCF correction =     0.000078


     Computing stress (Cartesian axis) and pressure

          total   stress  (Ry/bohr**3)                   (kbar)     P=   -4.18
  -0.00011022   0.00000000   0.00000001        -16.21      0.00      0.00
   0.00000000   0.00001249  -0.00000000          0.00      1.84     -0.00
   0.00000001  -0.00000000   0.00001257          0.00     -0.00      1.85


     number of scf cycles    =   6
     number of bfgs steps    =   5

     enthalpy old            =     -30.5778068354 Ry
     enthalpy new            =     -30.5780624955 Ry

     CASE: enthalpy_new < enthalpy_old

     new trust radius        =       0.0159684226 bohr
     new conv_thr            =       0.0000003675 Ry

     new unit-cell volume =    259.87893 a.u.^3 (    38.51008 Ang^3 )
     density =      0.64196 g/cm^3

CELL_PARAMETERS (alat=  1.88972612)
   3.325392221   0.000000000   0.000008754
   0.000000000   3.403021061   0.000000000
   0.000008715  -0.000000000   3.403039257

ATOMIC_POSITIONS (crystal)
Li1     -0.009917038   0.000000000   0.000000869
Li1      0.509914750   0.500000000   0.500001776
H1       0.750015584  -0.000000000   0.500006220



     Writing output data file calc.save
     NEW-OLD atomic charge density approx. for the potential
     extrapolated charge    6.97454, renormalised to    7.00000

     total cpu time spent up to now is    10108.4 secs

     per-process dynamical memory:    30.7 Mb

     Self-consistent Calculation

     iteration #  1     ecut=    36.75 Ry     beta=0.10
     Davidson diagonalization with overlap
     ethr =  1.00E-06,  avg # of iterations =  3.5

     total cpu time spent up to now is    10791.9 secs

     total energy              =     -30.57838140 Ry
     Harris-Foulkes estimate   =     -30.59548577 Ry
     estimated scf accuracy    <       0.00001416 Ry

     iteration #  2     ecut=    36.75 Ry     beta=0.10
     Davidson diagonalization with overlap
     ethr =  2.02E-07,  avg # of iterations =  2.7

     total cpu time spent up to now is    11239.0 secs

     total energy              =     -30.57839648 Ry
     Harris-Foulkes estimate   =     -30.57839690 Ry
     estimated scf accuracy    <       0.00000295 Ry

     iteration #  3     ecut=    36.75 Ry     beta=0.10
     Davidson diagonalization with overlap
     ethr =  4.21E-08,  avg # of iterations =  1.0

     total cpu time spent up to now is    11491.8 secs

     total energy              =     -30.57839533 Ry
     Harris-Foulkes estimate   =     -30.57839648 Ry
     estimated scf accuracy    <       0.00000212 Ry

     iteration #  4     ecut=    36.75 Ry     beta=0.10
     Davidson diagonalization with overlap
     ethr =  3.03E-08,  avg # of iterations =  1.0

     total cpu time spent up to now is    11762.1 secs

     End of self-consistent calculation

          k = 0.0000 0.0000 0.0000 (  1021 PWs)   bands (ev):

   -46.0276 -45.9892  -4.5332   3.4390   6.4858   6.4859   8.0517   9.3048
    15.0148  15.9452  15.9453  16.4958  17.3872  20.9475  20.9476

          k =-0.0000 0.0000 0.0735 (   992 PWs)   bands (ev):

   -46.0209 -45.9938  -4.1434   1.6094   6.2176   7.2589   9.4361  11.8954
    13.1814  13.5454  14.8763  15.1894  16.3538  18.8296  20.5986

          k = 0.0000-0.0000-0.1469 (   972 PWs)   bands (ev):

   -46.0066 -46.0061  -3.5662   0.0002   7.1637   9.2801   9.8677  10.2054
    11.5993  12.5444  13.6607  14.3820  18.2685  22.0602  22.4594

          k =-0.0000 0.0735 0.0735 (   995 PWs)   bands (ev):

   -46.0161 -45.9968  -3.8127   1.3186   5.0137   7.3199   9.6645  12.3771
    12.8588  13.4287  14.4822  15.8430  16.2409  18.5391  20.7179

          k = 0.0000 0.0735-0.1469 (   982 PWs)   bands (ev):

   -46.0056 -46.0053  -3.3663   0.5314   5.6614   6.5917   9.1919  10.8769
    12.9919  13.9857  14.3146  16.8507  16.8647  18.3245  21.1141

          k = 0.0000-0.1469-0.1469 (   992 PWs)   bands (ev):

   -46.0047 -46.0046  -3.1397   1.4105   4.4556   4.4556  10.7827  11.9645
    11.9646  12.7181  13.7229  15.6795  19.1210  19.1211  22.8701

          k = 0.0752 0.0735 0.0735 (  1003 PWs)   bands (ev):

   -46.0124 -45.9985  -3.3438   1.6992   3.8743   6.8756   8.9261  10.1944
    11.6759  13.9979  14.4004  17.2843  18.9841  20.2073  20.9130

          k = 0.0752 0.0735-0.1469 (   976 PWs)   bands (ev):

   -46.0046 -46.0043  -2.9194   1.1637   4.7130   6.2807   7.7219   8.6841
    11.8868  12.4490  16.2498  19.2027  19.5637  20.3578  21.7931

          k = 0.0752-0.1469-0.1469 (  1004 PWs)   bands (ev):

   -46.0037 -46.0036  -2.6716   2.2486   4.5361   4.5361   6.7964   8.8922
    10.7074  10.7075  17.3773  21.3344  22.1944  22.1945  23.6643

          k =-0.1504-0.1469-0.1469 (   968 PWs)   bands (ev):

   -46.0025 -46.0024  -2.0602   4.6258   4.6258   4.6835   4.7302   4.7813
     9.8176   9.8176  19.8076  24.9272  25.4604  25.8239  25.8240

          k = 0.0752-0.0000-0.0000 (   992 PWs)   bands (ev):

   -46.0209 -45.9935  -4.0397   1.8711   6.4723   7.2896   7.2897  13.2235
    13.4546  13.4547  14.4893  15.3476  16.2037  19.8668  19.8668

          k =-0.0000 0.0735 0.0000 (   992 PWs)   bands (ev):

   -46.0209 -45.9938  -4.1434   1.6095   6.2175   7.2587   9.4359  11.8958
    13.1813  13.5454  14.8763  15.1892  16.3538  18.8297  20.5985

          k =-0.1504 0.0000 0.0000 (   972 PWs)   bands (ev):

   -46.0091 -46.0029  -3.2611   0.0851   6.8208   9.2911   9.2912  10.1560
    10.1561  12.1905  13.9256  14.6411  21.5435  21.5435  22.6463

          k = 0.0000-0.1469-0.0000 (   972 PWs)   bands (ev):

   -46.0065 -46.0061  -3.5662   0.0003   7.1635   9.2800   9.8676  10.2054
    11.5990  12.5443  13.6610  14.3820  18.2686  22.0605  22.4596

          k = 0.0752-0.0000-0.0735 (   995 PWs)   bands (ev):

   -46.0160 -45.9966  -3.6678   1.6091   4.2072   8.0493   8.9005  11.1054
    13.0563  13.9899  15.2740  16.3013  16.6310  17.3609  20.4277

          k =-0.0752 0.0000-0.0735 (   995 PWs)   bands (ev):

   -46.0160 -45.9966  -3.6678   1.6091   4.2072   8.0493   8.9004  11.1053
    13.0563  13.9899  15.2740  16.3012  16.6310  17.3609  20.4279

          k = 0.0752-0.0735-0.0000 (   995 PWs)   bands (ev):

   -46.0160 -45.9966  -3.6678   1.6092   4.2070   8.0491   8.9005  11.1054
    13.0562  13.9899  15.2740  16.3013  16.6310  17.3608  20.4279

          k = 0.0752-0.0000 0.1469 (   982 PWs)   bands (ev):

   -46.0056 -46.0051  -3.1404   0.5619   4.7357   6.8624   9.9839  10.5802
    11.7842  13.4008  15.8315  17.0738  17.6452  18.1568  19.3047

          k =-0.1504-0.0735 0.0000 (   982 PWs)   bands (ev):

   -46.0074 -46.0030  -2.9554   0.6152   4.4411   6.7495   9.9708  10.8109
    11.2659  13.4379  15.1702  16.5857  17.2984  18.1130  21.3791

          k =-0.0000-0.1469 0.0735 (   982 PWs)   bands (ev):

   -46.0056 -46.0054  -3.3662   0.5314   5.6613   6.5917   9.1920  10.8769
    12.9918  13.9858  14.3147  16.8506  16.8646  18.3245  21.1142

          k = 0.0752-0.1469-0.0000 (   982 PWs)   bands (ev):

   -46.0055 -46.0052  -3.1403   0.5619   4.7355   6.8624   9.9838  10.5801
    11.7844  13.4007  15.8311  17.0738  17.6452  18.1567  19.3050

          k =-0.1504 0.0000 0.0735 (   982 PWs)   bands (ev):

   -46.0074 -46.0030  -2.9555   0.6152   4.4412   6.7494   9.9710  10.8110
    11.2657  13.4380  15.1704  16.5856  17.2984  18.1130  21.3790

          k =-0.1504 0.0000 0.1469 (   992 PWs)   bands (ev):

   -46.0046 -46.0041  -2.5754   1.4947   2.9878   4.6383  11.1895  11.5702
    11.8200  13.2163  14.7958  15.2820  16.5711  18.3979  21.9634

          k =-0.1504 0.1469 0.0000 (   992 PWs)   bands (ev):

   -46.0045 -46.0041  -2.5753   1.4947   2.9875   4.6383  11.1893  11.5705
    11.8199  13.2161  14.7959  15.2819  16.5707  18.3979  21.9638

          k = 0.0752-0.0735-0.0735 (  1003 PWs)   bands (ev):

   -46.0124 -45.9985  -3.3438   1.6992   3.8742   6.8756   8.9261  10.1945
    11.6760  13.9980  14.4004  17.2843  18.9842  20.2072  20.9130

          k =-0.1504-0.0735 0.0735 (   976 PWs)   bands (ev):

   -46.0058 -46.0027  -2.6687   1.2157   3.9569   6.3067   8.4019   8.4022
    11.8099  12.2889  15.4293  18.9373  19.8126  20.1805  23.3765

          k =-0.0752-0.1469 0.0735 (   976 PWs)   bands (ev):

   -46.0045 -46.0044  -2.9193   1.1637   4.7128   6.2807   7.7220   8.6841
    11.8868  12.4490  16.2496  19.2026  19.5637  20.3578  21.7932

          k =-0.0752 0.1469-0.0735 (   976 PWs)   bands (ev):

   -46.0045 -46.0044  -2.9193   1.1637   4.7129   6.2807   7.7220   8.6841
    11.8868  12.4489  16.2495  19.2026  19.5637  20.3578  21.7934

          k =-0.1504 0.0735 0.1469 (  1004 PWs)   bands (ev):

   -46.0036 -46.0034  -2.3278   2.2950   3.2698   4.6945   7.8053   8.6425
    10.4553  10.6427  17.8297  20.6113  20.9271  21.3414  23.2066

          k =-0.1504 0.1469 0.0735 (  1004 PWs)   bands (ev):

   -46.0036 -46.0034  -2.3277   2.2950   3.2696   4.6945   7.8054   8.6425
    10.4552  10.6426  17.8295  20.6112  20.9270  21.3413  23.2069

     the Fermi energy is     1.4170 ev

!    total energy              =     -30.57839459 Ry
     Harris-Foulkes estimate   =     -30.57839552 Ry
     estimated scf accuracy    <       0.00000008 Ry

     The total energy is the sum of the following terms:

     one-electron contribution =     -18.65603994 Ry
     hartree contribution      =       7.41614095 Ry
     xc contribution           =      -7.98065554 Ry
     ewald contribution        =     -11.35455644 Ry
     smearing contrib. (-TS)   =      -0.00328362 Ry

     convergence has been achieved in   4 iterations

     Forces acting on atoms (cartesian axes, Ry/au):

     atom    1 type  1   force =    -0.00596591    0.00000000    0.00000102
     atom    2 type  1   force =     0.00596764   -0.00000000    0.00000037
     atom    3 type  2   force =    -0.00000173    0.00000000   -0.00000140

     Total force =     0.008438     Total SCF correction =     0.000096


     Computing stress (Cartesian axis) and pressure

          total   stress  (Ry/bohr**3)                   (kbar)     P=   -3.00
  -0.00010251   0.00000000   0.00000000        -15.08      0.00      0.00
   0.00000000   0.00002061  -0.00000000          0.00      3.03     -0.00
   0.00000000  -0.00000000   0.00002068          0.00     -0.00      3.04


     number of scf cycles    =   7
     number of bfgs steps    =   6

     enthalpy old            =     -30.5780624955 Ry
     enthalpy new            =     -30.5783945913 Ry

     CASE: enthalpy_new < enthalpy_old

     new trust radius        =       0.0240215107 bohr
     new conv_thr            =       0.0000003675 Ry

     new unit-cell volume =    258.42658 a.u.^3 (    38.29487 Ang^3 )
     density =      0.64557 g/cm^3

CELL_PARAMETERS (alat=  1.88972612)
   3.300616422   0.000000000   0.000010038
   0.000000000   3.406202374   0.000000000
   0.000009969  -0.000000000   3.406238728

ATOMIC_POSITIONS (crystal)
Li1     -0.012882024   0.000000000   0.000001355
Li1      0.512880514   0.500000000   0.500001968
H1       0.750014807  -0.000000000   0.500005541



     Writing output data file calc.save
     NEW-OLD atomic charge density approx. for the potential
     extrapolated charge    6.96573, renormalised to    7.00000

     total cpu time spent up to now is    11821.5 secs

     per-process dynamical memory:    31.8 Mb

     Self-consistent Calculation

     iteration #  1     ecut=    36.75 Ry     beta=0.10
     Davidson diagonalization with overlap
     ethr =  1.00E-06,  avg # of iterations =  3.5

     total cpu time spent up to now is    12305.7 secs

     total energy              =     -30.57873317 Ry
[...]
    14.8266  15.2653  15.7767  16.9155  17.4511  20.5885  20.9482

          k = 0.0000-0.1421 0.0000 (   944 PWs)   bands (ev):

   -45.8612 -45.8590  -3.6563  -0.1020   8.1227   8.3928   8.9628  11.9999
    12.6227  12.7103  15.6372  16.6665  18.2790  20.6715  22.3887

          k =-0.0000-0.1421 0.0710 (   954 PWs)   bands (ev):

   -45.8606 -45.8586  -3.5045   0.3627   5.3489   6.0695  10.8114  13.1204
    14.8212  15.2651  15.7664  16.9136  17.4499  20.5846  20.9635

          k = 0.0000-0.1421-0.1420 (   932 PWs)   bands (ev):

   -45.8598 -45.8580  -3.3355   1.1070   4.1573   4.1574  12.4892  13.9461
    13.9478  14.9419  15.9432  18.3375  20.5848  20.5862  21.9217

          k = 0.0832 0.0000-0.0000 (   967 PWs)   bands (ev):

   -45.8728 -45.8431  -3.8223   2.7905   6.4381   6.7395   6.7508  13.0632
    14.0685  14.0745  15.0472  15.8993  18.9168  18.9189  19.6257

          k = 0.0832 0.0000 0.0710 (   957 PWs)   bands (ev):

   -45.8678 -45.8468  -3.4957   1.8691   4.8637   7.4694   9.3138  11.4438
    12.7494  13.6243  14.7476  16.7801  17.6231  19.7080  21.4538

          k = 0.0832 0.0000-0.1420 (   958 PWs)   bands (ev):

   -45.8575 -45.8560  -3.0400   0.6269   5.5946   8.0442   9.3214   9.9053
    11.5737  12.9641  16.7526  18.2708  18.5102  18.7524  20.8700

          k = 0.0832 0.0000-0.0710 (   957 PWs)   bands (ev):

   -45.8678 -45.8468  -3.4957   1.8690   4.8637   7.4694   9.3138  11.4439
    12.7493  13.6242  14.7477  16.7801  17.6231  19.7081  21.4537

          k = 0.0832 0.0710-0.0000 (   957 PWs)   bands (ev):

   -45.8678 -45.8468  -3.4953   1.8719   4.8653   7.4592   9.3158  11.4468
    12.7461  13.6168  14.7543  16.7692  17.6181  19.7078  21.4659

          k = 0.0832 0.0710 0.0710 (   950 PWs)   bands (ev):

   -45.8641 -45.8493  -3.2189   1.7802   4.2454   7.1171   9.1423  10.6237
    12.3483  13.6910  14.3734  18.4807  19.2120  21.1728  21.4757

          k = 0.0832 0.0710-0.1420 (   950 PWs)   bands (ev):

   -45.8569 -45.8553  -2.8636   1.1675   5.0186   6.2887   8.1489   9.6044
    12.4885  13.2049  16.3826  18.6163  20.3534  22.2075  22.9462

          k = 0.0832 0.0710-0.0710 (   950 PWs)   bands (ev):

   -45.8641 -45.8493  -3.2189   1.7802   4.2454   7.1172   9.1423  10.6237
    12.3484  13.6910  14.3735  18.4807  19.2120  21.1727  21.4756

          k = 0.0832-0.1421-0.0000 (   954 PWs)   bands (ev):

   -45.8578 -45.8556  -3.0390   0.6295   5.5972   8.0462   9.3145   9.8975
    11.5660  12.9535  16.7569  18.2621  18.5100  18.7433  20.8784

          k = 0.0832-0.1421 0.0710 (   952 PWs)   bands (ev):

   -45.8571 -45.8551  -2.8631   1.1693   5.0194   6.2864   8.1475   9.6047
    12.4839  13.1994  16.3786  18.6030  20.3624  22.2219  22.9418

          k = 0.0832-0.1421-0.1420 (   948 PWs)   bands (ev):

   -45.8564 -45.8546  -2.6681   2.1352   4.3585   4.3588   7.8615  10.2670
    11.7209  11.7218  18.3302  21.7030  22.2104  25.0606  25.0638

          k = 0.0832-0.1421-0.0710 (   952 PWs)   bands (ev):

   -45.8571 -45.8551  -2.8631   1.1693   5.0194   6.2863   8.1475   9.6047
    12.4840  13.1995  16.3787  18.6031  20.3624  22.2219  22.9418

          k =-0.1665 0.0000 0.0000 (   946 PWs)   bands (ev):

   -45.8584 -45.8503  -2.6935   0.6426   6.7730   9.2322   9.2426  10.2292
    10.2401  12.2323  13.4777  14.4335  20.6305  20.6335  21.8775

          k =-0.1665 0.0000 0.0710 (   938 PWs)   bands (ev):

   -45.8567 -45.8508  -2.4467   1.1224   4.6772   7.1060   9.8817  10.8437
    11.0208  13.1529  14.7505  16.2867  16.7375  17.6618  21.2001

          k =-0.1665 0.0000-0.1420 (   956 PWs)   bands (ev):

   -45.8540 -45.8525  -2.1513   1.9084   3.3559   5.2386  11.0545  11.1895
    11.7069  12.8305  14.5222  14.9412  16.6223  18.4331  21.8747

          k =-0.1665 0.0710 0.0000 (   942 PWs)   bands (ev):

   -45.8568 -45.8508  -2.4463   1.1232   4.6805   7.1121   9.8726  10.8342
    11.0166  13.1414  14.7573  16.2948  16.7325  17.6567  21.2053

          k =-0.1665 0.0710 0.0710 (   944 PWs)   bands (ev):

   -45.8554 -45.8510  -2.2138   1.6751   4.2042   6.6808   8.4194   8.6162
    11.7459  12.0971  15.0723  18.4709  19.3782  19.7954  22.4010

          k =-0.1665 0.0710-0.1420 (   936 PWs)   bands (ev):

   -45.8534 -45.8518  -1.9466   2.6508   3.5770   5.2246   7.8017   8.6155
    10.6865  10.8871  17.5093  20.1111  20.2973  20.9138  22.7064

          k =-0.1665-0.1421 0.0000 (   956 PWs)   bands (ev):

   -45.8543 -45.8522  -2.1504   1.9109   3.3593   5.2416  11.0489  11.1794
    11.7003  12.8186  14.5122  14.9308  16.6238  18.4277  21.8934

          k =-0.1665-0.1421 0.0710 (   936 PWs)   bands (ev):

   -45.8536 -45.8516  -1.9462   2.6524   3.5798   5.2270   7.7974   8.6098
    10.6844  10.8843  17.5040  20.1019  20.2836  20.9029  22.7155

          k =-0.1665-0.1421-0.1420 (   960 PWs)   bands (ev):

   -45.8530 -45.8512  -1.7303   4.5988   4.5993   5.1128   5.1155   5.3098
    10.2949  10.2954  19.6468  23.8326  24.1850  24.6695  26.5981

     the Fermi energy is     1.5160 ev

!    total energy              =     -30.58071239 Ry
     Harris-Foulkes estimate   =     -30.57886628 Ry
     estimated scf accuracy    <       0.00000018 Ry

     The total energy is the sum of the following terms:

     one-electron contribution =     -18.37556120 Ry
     hartree contribution      =       7.31276345 Ry
     xc contribution           =      -7.98947010 Ry
     ewald contribution        =     -11.52633369 Ry
     smearing contrib. (-TS)   =      -0.00211083 Ry

     convergence has been achieved in   1 iterations

     Forces acting on atoms (cartesian axes, Ry/au):

     atom    1 type  1   force =     0.00006522    0.00000000    0.00000109
     atom    2 type  1   force =     0.00011574    0.00000000    0.00000027
     atom    3 type  2   force =    -0.00018096    0.00000000   -0.00000136

     Total force =     0.000224     Total SCF correction =     0.000111
     SCF correction compared to forces is large: reduce conv_thr to get better values


     Computing stress (Cartesian axis) and pressure

          total   stress  (Ry/bohr**3)                   (kbar)     P=   -6.38
  -0.00004266   0.00000000   0.00000001         -6.28      0.00      0.00
   0.00000000  -0.00004327   0.00000000          0.00     -6.37      0.00
   0.00000001   0.00000000  -0.00004416          0.00      0.00     -6.50


     number of scf cycles    =  49
     number of bfgs steps    =   6

     enthalpy old            =     -30.5807142788 Ry
     enthalpy new            =     -30.5807123867 Ry

     CASE: enthalpy_new > enthalpy_old

     new trust radius        =       0.0001366658 bohr
     new conv_thr            =       0.0000003675 Ry

     new unit-cell volume =    251.11831 a.u.^3 (    37.21189 Ang^3 )
     density =      0.66436 g/cm^3

CELL_PARAMETERS (alat=  1.88972612)
   3.002951433   0.000000000   0.000006594
   0.000000000   3.519119334   0.000000000
   0.000006356   0.000000000   3.521271210

ATOMIC_POSITIONS (crystal)
Li1      0.984734429   0.000000000   1.000000168
Li1      0.515272801   0.500000000   0.500002915
H1       0.750006066   0.000000000   0.500005781



     Writing output data file calc.save
     NEW-OLD atomic charge density approx. for the potential
     extrapolated charge    6.99713, renormalised to    7.00000

     total cpu time spent up to now is    42546.8 secs

     per-process dynamical memory:    52.7 Mb

     Self-consistent Calculation

     iteration #  1     ecut=    36.75 Ry     beta=0.10
     Davidson diagonalization with overlap
     ethr =  1.00E-06,  avg # of iterations =  2.0

     Threshold (ethr) on eigenvalues was too large:
     Diagonalizing with lowered threshold

     Davidson diagonalization with overlap
     ethr =  5.44E-09,  avg # of iterations =  1.0

     total cpu time spent up to now is    42983.7 secs

     total energy              =     -30.58071396 Ry
     Harris-Foulkes estimate   =     -30.58255854 Ry
     estimated scf accuracy    <       0.00000038 Ry

     iteration #  2     ecut=    36.75 Ry     beta=0.10
     Davidson diagonalization with overlap
     ethr =  5.44E-09,  avg # of iterations =  2.1

     total cpu time spent up to now is    43309.3 secs

     End of self-consistent calculation

          k = 0.0000 0.0000 0.0000 (   963 PWs)   bands (ev):

   -45.9045 -45.8634  -4.4819   3.7371   5.7489   5.7605   9.7882  10.3291
    15.5619  15.5651  15.9766  17.8754  17.9423  19.3266  22.9238

          k =-0.0000 0.0000 0.0710 (   959 PWs)   bands (ev):

   -45.8979 -45.8688  -4.1436   1.4190   6.4900   7.1854  10.6210  12.2236
    12.8681  13.9031  15.3974  16.1803  17.8975  20.2139  21.9946

          k = 0.0000 0.0000-0.1420 (   944 PWs)   bands (ev):

   -45.8835 -45.8819  -3.6562  -0.1019   8.1289   8.4032   8.9750  12.0148
    12.6268  12.7153  15.6434  16.6728  18.2740  20.6526  22.3927

          k = 0.0000 0.0710 0.0000 (   959 PWs)   bands (ev):

   -45.8979 -45.8688  -4.1431   1.4226   6.4793   7.1861  10.6179  12.2207
    12.8765  13.9002  15.4015  16.1811  17.9031  20.2079  21.9886

          k =-0.0000 0.0710 0.0710 (   957 PWs)   bands (ev):

   -45.8930 -45.8724  -3.8666   1.0876   4.6881   8.2436   9.8793  12.9777
    13.9931  14.9767  15.8008  16.2501  17.2411  19.8603  20.3588

          k = 0.0000 0.0710-0.1420 (   954 PWs)   bands (ev):

   -45.8830 -45.8812  -3.5039   0.3638   5.3541   6.0768  10.8164  13.1246
    14.8320  15.2705  15.7817  16.9243  17.4581  20.5981  20.9559

          k = 0.0000-0.1421 0.0000 (   944 PWs)   bands (ev):

   -45.8839 -45.8815  -3.6551  -0.0993   8.1280   8.3958   8.9668  12.0057
    12.6278  12.7155  15.6430  16.6741  18.2857  20.6792  22.3968

          k =-0.0000-0.1421 0.0710 (   954 PWs)   bands (ev):

   -45.8832 -45.8810  -3.5033   0.3656   5.3525   6.0733  10.8168  13.1253
    14.8261  15.2702  15.7712  16.9223  17.4572  20.5941  20.9718

          k = 0.0000-0.1421-0.1420 (   932 PWs)   bands (ev):

   -45.8824 -45.8804  -3.3343   1.1102   4.1607   4.1609  12.4961  13.9504
    13.9521  14.9467  15.9488  18.3473  20.5935  20.5953  21.9294

          k = 0.0833 0.0000-0.0000 (   967 PWs)   bands (ev):

   -45.8953 -45.8656  -3.8210   2.7944   6.4430   6.7426   6.7541  13.0690
    14.0727  14.0790  15.0534  15.9058  18.9248  18.9267  19.6336

          k = 0.0833 0.0000 0.0710 (   957 PWs)   bands (ev):

   -45.8904 -45.8693  -3.4944   1.8723   4.8678   7.4729   9.3189  11.4492
    12.7535  13.6294  14.7525  16.7879  17.6300  19.7159  21.4617

          k = 0.0833 0.0000-0.1420 (   958 PWs)   bands (ev):

   -45.8801 -45.8784  -3.0387   0.6298   5.5990   8.0493   9.3249   9.9096
    11.5787  12.9697  16.7583  18.2781  18.5168  18.7607  20.8767

          k = 0.0833 0.0000-0.0710 (   957 PWs)   bands (ev):

   -45.8904 -45.8693  -3.4943   1.8723   4.8678   7.4729   9.3189  11.4493
    12.7535  13.6293  14.7526  16.7879  17.6300  19.7159  21.4615

          k = 0.0833 0.0710-0.0000 (   957 PWs)   bands (ev):

   -45.8904 -45.8693  -3.4939   1.8753   4.8689   7.4623   9.3213  11.4524
    12.7500  13.6219  14.7592  16.7769  17.6248  19.7158  21.4741

          k = 0.0833 0.0710 0.0710 (   950 PWs)   bands (ev):

   -45.8866 -45.8718  -3.2175   1.7835   4.2487   7.1215   9.1469  10.6290
    12.3529  13.6967  14.3782  18.4866  19.2200  21.1798  21.4847

          k = 0.0833 0.0710-0.1420 (   950 PWs)   bands (ev):

   -45.8796 -45.8777  -2.8623   1.1706   5.0224   6.2927   8.1533   9.6097
    12.4928  13.2098  16.3892  18.6240  20.3595  22.2147  22.9543

          k = 0.0833 0.0710-0.0710 (   950 PWs)   bands (ev):

   -45.8866 -45.8718  -3.2175   1.7835   4.2487   7.1216   9.1469  10.6290
    12.3529  13.6967  14.3783  18.4866  19.2200  21.1798  21.4847

          k = 0.0833-0.1421-0.0000 (   954 PWs)   bands (ev):

   -45.8804 -45.8781  -3.0376   0.6324   5.6012   8.0513   9.3176   9.9016
    11.5715  12.9589  16.7618  18.2694  18.5168  18.7513  20.8862

          k = 0.0833-0.1421 0.0710 (   952 PWs)   bands (ev):

   -45.8797 -45.8775  -2.8617   1.1724   5.0229   6.2903   8.1519   9.6102
    12.4882  13.2042  16.3847  18.6105  20.3690  22.2294  22.9501

          k = 0.0833-0.1421-0.1420 (   948 PWs)   bands (ev):

   -45.8791 -45.8770  -2.6666   2.1387   4.3618   4.3622   7.8661  10.2730
    11.7256  11.7263  18.3359  21.7091  22.2165  25.0696  25.0732

          k = 0.0833-0.1421-0.0710 (   952 PWs)   bands (ev):

   -45.8797 -45.8775  -2.8616   1.1724   5.0229   6.2903   8.1520   9.6102
    12.4882  13.2043  16.3848  18.6106  20.3689  22.2293  22.9501

          k =-0.1665 0.0000 0.0000 (   946 PWs)   bands (ev):

   -45.8810 -45.8728  -2.6919   0.6455   6.7782   9.2356   9.2464  10.2335
    10.2447  12.2395  13.4831  14.4383  20.6376  20.6407  21.8855

          k =-0.1665 0.0000 0.0710 (   938 PWs)   bands (ev):

   -45.8793 -45.8733  -2.4451   1.1253   4.6814   7.1106   9.8855  10.8483
    11.0254  13.1586  14.7552  16.2931  16.7443  17.6695  21.2084

          k =-0.1665 0.0000-0.1420 (   956 PWs)   bands (ev):

   -45.8766 -45.8750  -2.1498   1.9115   3.3596   5.2433  11.0580  11.1939
    11.7110  12.8356  14.5290  14.9491  16.6291  18.4407  21.8808

          k =-0.1665 0.0710 0.0000 (   942 PWs)   bands (ev):

   -45.8793 -45.8733  -2.4446   1.1262   4.6843   7.1169   9.8760  10.8385
    11.0219  13.1468  14.7618  16.3015  16.7394  17.6642  21.2138

          k =-0.1665 0.0710 0.0710 (   944 PWs)   bands (ev):

   -45.8780 -45.8735  -2.2121   1.6781   4.2079   6.6853   8.4241   8.6205
    11.7500  12.1014  15.0783  18.4782  19.3853  19.8025  22.4092

          k =-0.1665 0.0710-0.1420 (   936 PWs)   bands (ev):

   -45.8760 -45.8742  -1.9450   2.6540   3.5805   5.2291   7.8056   8.6204
    10.6908  10.8916  17.5162  20.1175  20.3049  20.9213  22.7132

          k =-0.1665-0.1421 0.0000 (   956 PWs)   bands (ev):

   -45.8770 -45.8746  -2.1485   1.9139   3.3624   5.2464  11.0518  11.1844
    11.7043  12.8233  14.5191  14.9384  16.6298  18.4354  21.9008

          k =-0.1665-0.1421 0.0710 (   936 PWs)   bands (ev):

   -45.8762 -45.8740  -1.9443   2.6555   3.5828   5.2317   7.8017   8.6145
    10.6884  10.8888  17.5105  20.1083  20.2909  20.9104  22.7231

          k =-0.1665-0.1421-0.1420 (   960 PWs)   bands (ev):

   -45.8756 -45.8736  -1.7285   4.6020   4.6026   5.1171   5.1190   5.3146
    10.2997  10.3000  19.6527  23.8379  24.1913  24.6763  26.6061

     the Fermi energy is     1.5192 ev

!    total energy              =     -30.58071404 Ry
     Harris-Foulkes estimate   =     -30.58071415 Ry
     estimated scf accuracy    <       0.00000014 Ry

     The total energy is the sum of the following terms:

     one-electron contribution =     -18.37353024 Ry
     hartree contribution      =       7.31333740 Ry
     xc contribution           =      -7.99025256 Ry
     ewald contribution        =     -11.52815867 Ry
     smearing contrib. (-TS)   =      -0.00210997 Ry

     convergence has been achieved in   2 iterations

     Forces acting on atoms (cartesian axes, Ry/au):

     atom    1 type  1   force =     0.00007078    0.00000000    0.00000122
     atom    2 type  1   force =     0.00010968    0.00000000    0.00000025
     atom    3 type  2   force =    -0.00018046    0.00000000   -0.00000147

     Total force =     0.000223     Total SCF correction =     0.000014


     Computing stress (Cartesian axis) and pressure

          total   stress  (Ry/bohr**3)                   (kbar)     P=   -0.68
  -0.00000371   0.00000000   0.00000001         -0.55      0.00      0.00
   0.00000000  -0.00000468   0.00000000          0.00     -0.69      0.00
   0.00000001   0.00000000  -0.00000547          0.00      0.00     -0.80


     number of scf cycles    =  50
     number of bfgs steps    =   6

     enthalpy old            =     -30.5807142788 Ry
     enthalpy new            =     -30.5807140402 Ry

     CASE: enthalpy_new > enthalpy_old

     new trust radius        =       0.0000339362 bohr

     trust_radius < trust_radius_min

     resetting bfgs history

     new conv_thr            =       0.0000003675 Ry

     new unit-cell volume =    251.23650 a.u.^3 (    37.22941 Ang^3 )
     density =      0.66405 g/cm^3

CELL_PARAMETERS (alat=  1.88972612)
   3.003486506   0.000000000   0.000007040
   0.000000000   3.519658859   0.000000000
   0.000006878   0.000000000   3.521761006

ATOMIC_POSITIONS (crystal)
Li1      0.984744991   0.000000000   1.000000341
Li1      0.515288539   0.500000000   0.500002939
H1       0.749979766   0.000000000   0.500005584



     Writing output data file calc.save
     NEW-OLD atomic charge density approx. for the potential
     extrapolated charge    7.00287, renormalised to    7.00000

     Writing output data file calc.save
 
     init_run     :     23.80s CPU     95.33s WALL (       1 calls)
     electrons    :   7973.24s CPU  40002.59s WALL (      50 calls)
     update_pot   :    170.30s CPU    865.66s WALL (      50 calls)
     forces       :    169.24s CPU    860.41s WALL (      50 calls)
     stress       :    158.43s CPU    805.10s WALL (      50 calls)

     Called by init_run:
     wfcinit      :     20.05s CPU     80.25s WALL (       1 calls)
     potinit      :      2.87s CPU     11.49s WALL (       1 calls)

     Called by electrons:
     c_bands      :   7292.66s CPU  36603.70s WALL (     125 calls)
     sum_band     :    434.49s CPU   2178.00s WALL (     125 calls)
     v_of_rho     :    326.45s CPU   1629.89s WALL (     130 calls)
     newd         :      7.81s CPU     39.07s WALL (     130 calls)
     mix_rho      :      5.64s CPU     26.79s WALL (     125 calls)

     Called by c_bands:
     init_us_2    :      0.27s CPU      4.05s WALL (   10530 calls)
     cegterg      :   7186.11s CPU  36068.32s WALL (    3750 calls)

     Called by sum_band:
     sum_band:bec :      0.22s CPU      2.77s WALL (    3750 calls)
     addusdens    :      5.44s CPU     27.57s WALL (     125 calls)

     Called by *egterg:
     h_psi        :   1681.81s CPU   8416.12s WALL (   10057 calls)
     s_psi        :      0.01s CPU      0.62s WALL (   10057 calls)
     g_psi        :      0.04s CPU      0.66s WALL (    6277 calls)
     cdiaghg      :   3434.54s CPU  17295.65s WALL (    7177 calls)

     Called by h_psi:
     h_psi:pot    :   1681.78s CPU   8415.71s WALL (   10057 calls)
     h_psi:calbec :    231.39s CPU   1153.85s WALL (   10057 calls)
     vloc_psi     :   1449.70s CPU   7252.45s WALL (   10057 calls)
     add_vuspsi   :      0.67s CPU      9.02s WALL (   10057 calls)

     General routines
     calbec       :    516.74s CPU   2590.78s WALL (   21307 calls)
     fft          :    461.78s CPU   2320.84s WALL (   11211 calls)
     ffts         :      5.49s CPU     27.51s WALL (     255 calls)
     fftw         :   1754.66s CPU   8774.58s WALL (  328120 calls)
     interpolate  :     16.10s CPU     80.30s WALL (     255 calls)
     davcio       :      0.00s CPU      0.00s WALL (      30 calls)
 
     Parallel routines
     fft_scatter  :   2221.51s CPU  11105.64s WALL (  339586 calls)
 
     PWSCF        :     2h23m CPU       12h 2m WALL

 
   This run was terminated on:   9:30:42  22Oct2017            

=------------------------------------------------------------------------------=
   JOB DONE.
=------------------------------------------------------------------------------=
-------------------------------------------------------
Primary job  terminated normally, but 1 process returned
a non-zero exit code.. Per user-direction, the job has been aborted.
-------------------------------------------------------
--------------------------------------------------------------------------
mpirun detected that one or more processes exited with non-zero status, thus causing
the job to be terminated. The first process to do so was:

  Process name: [[15048,1],2]
  Exit code:    3
--------------------------------------------------------------------------
